

     ************************************************************************
     *************** Dalton - An Electronic Structure Program ***************
     ************************************************************************

    This is output from DALTON release Dalton2020.0 (2020)
         ( Web site: http://daltonprogram.org )

   ----------------------------------------------------------------------------

    NOTE:
     
    Dalton is an experimental code for the evaluation of molecular
    properties using (MC)SCF, DFT, CI, and CC wave functions.
    The authors accept no responsibility for the performance of
    the code or for the correctness of the results.
     
    The code (in whole or part) is provided under a licence and
    is not to be reproduced for further distribution without
    the written permission of the authors or their representatives.
     
    See the home page "http://daltonprogram.org" for further information.
     
    If results obtained with this code are published,
    the appropriate citations would be both of:
     
       K. Aidas, C. Angeli, K. L. Bak, V. Bakken, R. Bast,
       L. Boman, O. Christiansen, R. Cimiraglia, S. Coriani,
       P. Dahle, E. K. Dalskov, U. Ekstroem,
       T. Enevoldsen, J. J. Eriksen, P. Ettenhuber, B. Fernandez,
       L. Ferrighi, H. Fliegl, L. Frediani, K. Hald, A. Halkier,
       C. Haettig, H. Heiberg, T. Helgaker, A. C. Hennum,
       H. Hettema, E. Hjertenaes, S. Hoest, I.-M. Hoeyvik,
       M. F. Iozzi, B. Jansik, H. J. Aa. Jensen, D. Jonsson,
       P. Joergensen, J. Kauczor, S. Kirpekar,
       T. Kjaergaard, W. Klopper, S. Knecht, R. Kobayashi, H. Koch,
       J. Kongsted, A. Krapp, K. Kristensen, A. Ligabue,
       O. B. Lutnaes, J. I. Melo, K. V. Mikkelsen, R. H. Myhre,
       C. Neiss, C. B. Nielsen, P. Norman, J. Olsen,
       J. M. H. Olsen, A. Osted, M. J. Packer, F. Pawlowski,
       T. B. Pedersen, P. F. Provasi, S. Reine, Z. Rinkevicius,
       T. A. Ruden, K. Ruud, V. Rybkin, P. Salek, C. C. M. Samson,
       A. Sanchez de Meras, T. Saue, S. P. A. Sauer,
       B. Schimmelpfennig, K. Sneskov, A. H. Steindal,
       K. O. Sylvester-Hvid, P. R. Taylor, A. M. Teale,
       E. I. Tellgren, D. P. Tew, A. J. Thorvaldsen, L. Thoegersen,
       O. Vahtras, M. A. Watson, D. J. D. Wilson, M. Ziolkowski
       and H. Agren,
       "The Dalton quantum chemistry program system",
       WIREs Comput. Mol. Sci. 2014, 4:269–284 (doi: 10.1002/wcms.1172)
     
    and
     
       Dalton, a molecular electronic structure program,
       Release Dalton2020.0 (2020), see http://daltonprogram.org
   ----------------------------------------------------------------------------

    Authors in alphabetical order (Major contribution(s) in parenthesis):

  Kestutis Aidas,           Vilnius University,           Lithuania   (QM/MM)
  Celestino Angeli,         University of Ferrara,        Italy       (NEVPT2)
  Keld L. Bak,              UNI-C,                        Denmark     (AOSOPPA, non-adiabatic coupling, magnetic properties)
  Vebjoern Bakken,          University of Oslo,           Norway      (DALTON; geometry optimizer, symmetry detection)
  Radovan Bast,             UiT The Arctic U. of Norway,  Norway      (DALTON installation and execution frameworks)
  Pablo Baudin,             University of Valencia,       Spain       (Cholesky excitation energies)
  Linus Boman,              NTNU,                         Norway      (Cholesky decomposition and subsystems)
  Bruno N. Cabral Tenorio,  Technical Univ. of Denmark,   Denmark     (Lanczos-based CC methods)
  Ove Christiansen,         Aarhus University,            Denmark     (CC module)
  Renzo Cimiraglia,         University of Ferrara,        Italy       (NEVPT2)
  Sonia Coriani,            Technical Univ. of Denmark,   Denmark     (CC and RESPONS modules)
  Janusz Cukras,            University of Warsaw,         Poland      (MChD in RESPONS)
  Paal Dahle,               University of Oslo,           Norway      (Parallelization)
  Erik K. Dalskov,          UNI-C,                        Denmark     (SOPPA)
  Thomas Enevoldsen,        Univ. of Southern Denmark,    Denmark     (SOPPA)
  Janus J. Eriksen,         Aarhus University,            Denmark     (Polarizable embedding, TDA)
  Rasmus Faber,             Technical Univ. of Denmark,   Denmark     (Vib.avg. NMR w. SOPPA, parallel AO-SOPPA, CVS-CC and EOMCC)
  Tobias Fahleson,          KTH Stockholm,                Sweden      (Damped cubic response)
  Berta Fernandez,          U. of Santiago de Compostela, Spain       (Doublet spin, ESR in RESPONS)
  Lara Ferrighi,            Aarhus University,            Denmark     (PCM Cubic response)
  Heike Fliegl,             University of Oslo,           Norway      (CCSD(R12))
  Luca Frediani,            UiT The Arctic U. of Norway,  Norway      (PCM)
  Emmanuel Fromager,        Univ. Strasbourg,             France      (MC-srDFT)
  Bin Gao,                  UiT The Arctic U. of Norway,  Norway      (Gen1Int library)
  Andre S. P. Gomes,        CNRS/Universite de Lille,     France      (Frozen density embedding)
  Christof Haettig,         Ruhr-University Bochum,       Germany     (CC module)
  Kasper Hald,              Aarhus University,            Denmark     (CC module)
  Asger Halkier,            Aarhus University,            Denmark     (CC module)
  Frederik Beyer Hansen,    University of Copenhagen,     Denmark     (Parallel AO-SOPPA)
  Erik D. Hedegaard,        Univ. of Southern Denmark,    Denmark     (Polarizable embedding, QM/MM, and MC-srDFT)
  Hanne Heiberg,            University of Oslo,           Norway      (Geometry analysis, selected one-electron integrals)
  Trygve Helgaker,          University of Oslo,           Norway      (DALTON; ABACUS, ERI, DFT modules, London, and much more)
  Alf Christian Hennum,     University of Oslo,           Norway      (Parity violation)
  Hinne Hettema,            University of Auckland,       New Zealand (Quadratic response in RESPONS; SIRIUS supersymmetry)
  Eirik Hjertenaes,         NTNU,                         Norway      (Cholesky decomposition)
  Pi A. B. Haase,           University of Copenhagen,     Denmark     (Triplet AO-SOPPA)
  Maria Francesca Iozzi,    University of Oslo,           Norway      (RPA)
  Christoph Jacob           TU Braunschweig               Germany     (Frozen density embedding)
  Brano Jansik              Technical Univ. of Ostrava    Czech Rep.  (DFT cubic response)
  Hans Joergen Aa. Jensen,  Univ. of Southern Denmark,    Denmark     (DALTON; SIRIUS, RESPONS, ABACUS, MC-srDFT, and much more)
  Dan Jonsson,              UiT The Arctic U. of Norway,  Norway      (Cubic response in RESPONS module)
  Poul Joergensen,          Aarhus University,            Denmark     (RESPONS, ABACUS, and CC modules)
  Maciej Kaminski,          University of Warsaw,         Poland      (CPPh in RESPONS)
  Joanna Kauczor,           Linkoeping University,        Sweden      (Complex polarization propagator (CPP) module)
  Sheela Kirpekar,          Univ. of Southern Denmark,    Denmark     (Mass-velocity & Darwin integrals)
  Erik Kjellgren,           Univ. of Southern Denmark,    Denmark     (MC-srDFT)
  Wim Klopper,              KIT Karlsruhe,                Germany     (R12 code in CC, SIRIUS, and ABACUS modules)
  Stefan Knecht,            ETH Zurich,                   Switzerland (Parallel CI and MCSCF, MC-srDFT)
  Rika Kobayashi,           Australian National Univ.,    Australia   (DIIS in CC, London in MCSCF)
  Henrik Koch,              NTNU,                         Norway      (CC module, Cholesky decomposition)
  Jacob Kongsted,           Univ. of Southern Denmark,    Denmark     (Polarizable embedding, polarizable density embedding, QM/MM)
  Andrea Ligabue,           University of Modena,         Italy       (CTOCD, AOSOPPA)
  Nanna H. List             Univ. of Southern Denmark,    Denmark     (Polarizable embedding)
  Ola B. Lutnaes,           University of Oslo,           Norway      (DFT Hessian)
  Juan I. Melo,             University of Buenos Aires,   Argentina   (LRESC, Relativistic Effects on NMR Shieldings)
  Kurt V. Mikkelsen,        University of Copenhagen,     Denmark     (MC-SCRF and QM/MM)
  Rolf H. Myhre,            NTNU,                         Norway      (Subsystems and CC3)
  Christian Neiss,          Univ. Erlangen-Nuernberg,     Germany     (CCSD(R12))
  Christian B. Nielsen,     University of Copenhagen,     Denmark     (QM/MM)
  Patrick Norman,           KTH Stockholm,                Sweden      (Cubic response and complex frequency response in RESPONS)
  Jeppe Olsen,              Aarhus University,            Denmark     (SIRIUS CI/density modules)
  Jogvan Magnus H. Olsen,   Aarhus University,            Denmark     (Polarizable embedding and polarizable density embedding)
  Anders Osted,             Copenhagen University,        Denmark     (QM/MM)
  Martin J. Packer,         University of Sheffield,      UK          (SOPPA)
  Filip Pawlowski,          Kazimierz Wielki University,  Poland      (CC3)
  Morten N. Pedersen,       Univ. of Southern Denmark,    Denmark     (Polarizable embedding)
  Thomas B. Pedersen,       University of Oslo,           Norway      (Cholesky decomposition)
  Patricio F. Provasi,      University of Northeastern,   Argentina   (Analysis of coupling constants in localized orbitals)
  Peter Reinholdt,          Univ. of Southern Denmark,    Denmark     (Polarizable embedding and polarizable density embedding)
  Zilvinas Rinkevicius,     KTH Stockholm,                Sweden      (open-shell DFT, ESR)
  Elias Rudberg,            KTH Stockholm,                Sweden      (DFT grid and basis info)
  Torgeir A. Ruden,         University of Oslo,           Norway      (Numerical derivatives in ABACUS)
  Kenneth Ruud,             UiT The Arctic U. of Norway,  Norway      (DALTON; ABACUS magnetic properties and much more)
  Pawel Salek,              KTH Stockholm,                Sweden      (DALTON; DFT code)
  Claire C. M. Samson       University of Karlsruhe       Germany     (Boys localization, r12 integrals in ERI)
  Alfredo Sanchez de Meras, University of Valencia,       Spain       (CC module, Cholesky decomposition)
  Trond Saue,               Paul Sabatier University,     France      (direct Fock matrix construction)
  Stephan P. A. Sauer,      University of Copenhagen,     Denmark     (SOPPA(CCSD), SOPPA prop., AOSOPPA, vibrational g-factors)
  Bernd Schimmelpfennig,    Forschungszentrum Karlsruhe,  Germany     (AMFI module)
  Anna K. Schnack-Petersen, University of Copenhagen,     Denmark     (RPA(D) and HRPA(D) properties in AOSOPPA)
  Kristian Sneskov,         Aarhus University,            Denmark     (Polarizable embedding, QM/MM)
  Arnfinn H. Steindal,      UiT The Arctic U. of Norway,  Norway      (parallel QM/MM, polarizable embedding)
  Casper Steinmann,         Aalborg University,           Denmark     (QFIT, polarizable embedding)
  K. O. Sylvester-Hvid,     University of Copenhagen,     Denmark     (MC-SCRF)
  Peter R. Taylor,          VLSCI/Univ. of Melbourne,     Australia   (Symmetry handling ABACUS, integral transformation)
  Andrew M. Teale,          University of Nottingham,     England     (DFT-AC, DFT-D)
  David P. Tew,             University of Bristol,        England     (CCSD(R12))
  Julien Toulouse,          Sorbonne Univ.,               France      (MC-srDFT)
  Olav Vahtras,             KTH Stockholm,                Sweden      (Triplet response, spin-orbit, ESR, TDDFT, open-shell DFT)
  Lucas Visscher,           Vrije Universiteit Amsterdam, Netherlands (Frozen density embedding)
  David J. Wilson,          La Trobe University,          Australia   (DFT Hessian and DFT magnetizabilities)
  Hans Agren,               KTH Stockholm,                Sweden      (SIRIUS module, RESPONS, MC-SCRF solvation)
 --------------------------------------------------------------------------------

     Date and time (Linux)  : Tue May 27 13:41:53 2025
     Host name              : xm033                                   

 * Work memory size             :   131072000 = 1000.00 megabytes.

 * Directories for basis set searches:
   1) /gpfs/projects/rjh/adrian/summer2025/beta_projects/raw_data/NLO/dalton/hf/n12/dipole
   2) /gpfs/projects/rjh/adrian/dalton/build/basis


Compilation information
-----------------------

 Who compiled             | ahurtado
 Host                     | milan2
 System                   | Linux-5.14.0-427.42.1.el9_4.x86_64
 CMake generator          | Unix Makefiles
 Processor                | x86_64
 64-bit integers          | OFF
 MPI                      | ON
 Fortran compiler         | /gpfs/software/openmpi/milan/gcc13.2/4.1.6/bin/mpi
                          | f90
 Fortran compiler version | GNU Fortran (GCC) 13.2.0
 C compiler               | /gpfs/software/openmpi/milan/gcc13.2/4.1.6/bin/mpi
                          | cc
 C compiler version       | gcc (GCC) 13.2.0
 C++ compiler             | /gpfs/software/openmpi/milan/gcc13.2/4.1.6/bin/mpi
                          | cxx
 C++ compiler version     | unknown
 BLAS                     | /gpfs/software/intel/oneAPI/2024_2/mkl/2024.2/lib/
                          | intel64/libmkl_gf_lp64.so;/gpfs/software/intel/one
                          | API/2024_2/mkl/2024.2/lib/intel64/libmkl_sequentia
                          | l.so;/gpfs/software/intel/oneAPI/2024_2/mkl/2024.2
                          | /lib/intel64/libmkl_core.so;/usr/lib64/libpthread.
                          | a;/usr/lib64/libm.so
 LAPACK                   | /gpfs/software/intel/oneAPI/2024_2/mkl/2024.2/lib/
                          | intel64/libmkl_lapack95_lp64.a;/gpfs/software/inte
                          | l/oneAPI/2024_2/mkl/2024.2/lib/intel64/libmkl_gf_l
                          | p64.so
 Static linking           | OFF
 Last Git revision        | 66052b3af5ea7225e31178bf9a8b031913c72190
 Git branch               | (HEAD detached at Dalton2020.0)
 Configuration time       | 2025-04-10 16:02:31.569498

 * MPI parallel run using 576 processes.


   Content of the .dal input file
 ----------------------------------

**DALTON INPUT
.RUN RESPONSE
.DIRECT
**WAVE FUNCTIONS
.HF
**PROPERTIES
**RESPONSE
*QUADRA
.DIPLEN
.FREQUENCIES
2
0.0 0.016
**END OF DALTON INPUT


   Content of the .mol file
 ----------------------------

BASIS
aug-cc-pVDZ
blah
blah
Atomtype=4 Angstrom Charge=0 Nosymmetry
Charge=6 Atoms=24
C_a 0.3580729984542411 -3.23821500246098 0.0
C_b 0.6668920025089234 -1.8967230021925146 0.0
C_c -0.31386499980588656 -0.8461899999464687 0.0
C_d 0.0 0.49460499985073547 0.0
C_e -0.9760669999485396 1.5491160018178671 0.0
C_f -0.6568810015786077 2.8888150015269645 0.0
C_g -1.6277509997671062 3.94816100041609 0.0
C_h -1.301926002321602 5.286146000431598 0.0
C_i -2.266093997595825 6.352103999775008 0.0
C_j -1.9310690003377617 7.687350999860106 0.0
C_k -2.8855839989400045 8.763118997462131 0.0
C_l -2.5364960008893993 10.093720001557799 0.0
C_m -3.475062000536728 11.185541997456877 0.0
C_n -3.1003099978736817 12.50702899832849 0.0
C_o -4.006745997738482 13.627608997447128 0.0
C_p -3.5646809975535416 14.924006997663415 0.0
C_q 3.246977002296268 -12.722374002304349 0.0
C_r 3.505096998325759 -11.394324997641315 0.0
C_s 2.469080999168377 -10.384737997547434 0.0
C_t 2.747355000313701 -9.04300299910383 0.0
C_u 1.7412740003278493 -8.010249001734408 0.0
C_v 2.034720999091044 -6.6680930004855385 0.0
C_w 1.0413089989552107 -5.626705000664547 0.0
C_x 1.3440610021648778 -4.284781001288378 0.0
Charge=7 Atoms=2
N_a -4.34941500213885 16.045511998546303 0.0
N_b 4.329315999702294 -13.700565998010687 0.0
Charge=8 Atoms=2
O_a 3.975711998044059 -14.88588500261371 0.0
O_b 5.495162002633667 -13.299550999175127 0.0
Charge=1 Atoms=26
H_a -0.7010630017506021 -3.5345659987538016 0.0
H_b 1.7270470022259492 -1.602783000772771 0.0
H_c -1.3743469992884736 -1.1379549983620045 0.0
H_d 1.0614080013917666 0.7841610009180505 0.0
H_e -2.0377939999464423 1.2617729986784856 0.0
H_f 0.4058810002503279 3.1736170015361505 0.0
H_g -2.69087900172203 3.666001002299527 0.0
H_h -0.23745300123386257 5.5648799994508416 0.0
H_i -3.331021000979687 6.076852997530446 0.0
H_j -0.8641970008243106 7.957424997951419 0.0
H_k -3.9530280019757846 8.49803499758959 0.0
H_l -1.4658389978753656 10.349718002264273 0.0
H_m -4.546436001628814 10.937914998128267 0.0
H_n -2.0230369991174233 12.73533200170443 0.0
H_o -5.086749000557497 13.426423997738299 0.0
H_p -2.4860810022731745 15.125354999828447 0.0
H_q -5.357553998755857 15.972702998265024 0.0
H_r -3.9401509984395693 16.966787000540688 0.0
H_s 2.2588980024636176 -13.186488001780075 0.0
H_t 4.555452001233451 -11.07896899871019 0.0
H_u 1.4211929992497394 -10.714244999441236 0.0
H_v 3.8003869996029587 -8.72551199767385 0.0
H_w 0.687156002399766 -8.322594998357067 0.0
H_x 3.091255998053547 -6.361639000512555 0.0
H_y -0.01596000054912352 -5.9291510018603715 0.0
H_z 2.4027659981151746 -3.985781002088436 0.0


       *******************************************************************
       *********** Output from DALTON general input processing ***********
       *******************************************************************

 --------------------------------------------------------------------------------
   Overall default print level:    0
   Print level for DALTON.STAT:    1

    Parallel calculation using MPI
    AO-direct calculation (in sections where implemented)
    HERMIT 1- and 2-electron integral sections will be executed
    "Old" integral transformation used (limited to max 255 basis functions)
    Wave function sections will be executed (SIRIUS module)
    Dynamic molecular response properties section will be executed (RESPONSE module)
 --------------------------------------------------------------------------------


   ****************************************************************************
   *************** Output of molecule and basis set information ***************
   ****************************************************************************


    The two title cards from your ".mol" input:
    ------------------------------------------------------------------------
 1: blah                                                                    
 2: blah                                                                    
    ------------------------------------------------------------------------

  Coordinates are entered in Angstrom and converted to atomic units.
          - Conversion factor : 1 bohr = 0.52917721 A

  Atomic type no.    1
  --------------------
  Nuclear charge:   6.00000
  Number of symmetry independent centers:   24
  Number of basis sets to read;    2
  Basis set file used for this atomic type with Z =   6 :
     "/gpfs/projects/rjh/adrian/dalton/build/basis/aug-cc-pVDZ"

  Atomic type no.    2
  --------------------
  Nuclear charge:   7.00000
  Number of symmetry independent centers:    2
  Number of basis sets to read;    2
  Basis set file used for this atomic type with Z =   7 :
     "/gpfs/projects/rjh/adrian/dalton/build/basis/aug-cc-pVDZ"

  Atomic type no.    3
  --------------------
  Nuclear charge:   8.00000
  Number of symmetry independent centers:    2
  Number of basis sets to read;    2
  Basis set file used for this atomic type with Z =   8 :
     "/gpfs/projects/rjh/adrian/dalton/build/basis/aug-cc-pVDZ"

  Atomic type no.    4
  --------------------
  Nuclear charge:   1.00000
  Number of symmetry independent centers:   26
  Number of basis sets to read;    2
  Basis set file used for this atomic type with Z =   1 :
     "/gpfs/projects/rjh/adrian/dalton/build/basis/aug-cc-pVDZ"


                         SYMGRP: Point group information
                         -------------------------------

@    Point group: C1 


                                 Isotopic Masses
                                 ---------------

                           C_a        12.000000
                           C_b        12.000000
                           C_c        12.000000
                           C_d        12.000000
                           C_e        12.000000
                           C_f        12.000000
                           C_g        12.000000
                           C_h        12.000000
                           C_i        12.000000
                           C_j        12.000000
                           C_k        12.000000
                           C_l        12.000000
                           C_m        12.000000
                           C_n        12.000000
                           C_o        12.000000
                           C_p        12.000000
                           C_q        12.000000
                           C_r        12.000000
                           C_s        12.000000
                           C_t        12.000000
                           C_u        12.000000
                           C_v        12.000000
                           C_w        12.000000
                           C_x        12.000000
                           N_a        14.003074
                           N_b        14.003074
                           O_a        15.994915
                           O_b        15.994915
                           H_a         1.007825
                           H_b         1.007825
                           H_c         1.007825
                           H_d         1.007825
                           H_e         1.007825
                           H_f         1.007825
                           H_g         1.007825
                           H_h         1.007825
                           H_i         1.007825
                           H_j         1.007825
                           H_k         1.007825
                           H_l         1.007825
                           H_m         1.007825
                           H_n         1.007825
                           H_o         1.007825
                           H_p         1.007825
                           H_q         1.007825
                           H_r         1.007825
                           H_s         1.007825
                           H_t         1.007825
                           H_u         1.007825
                           H_v         1.007825
                           H_w         1.007825
                           H_x         1.007825
                           H_y         1.007825
                           H_z         1.007825

                       Total mass:   374.199428 amu
                       Natural abundance:  75.459 %

 Center-of-mass coordinates (a.u.):    0.093454   -0.289436    0.000000
 Center-of-mass coordinates (Angs):    0.049454   -0.153163    0.000000


  Atoms and basis sets
  --------------------

  Number of atom types :    4
  Total number of atoms:   54

  Basis set used is "aug-cc-pVDZ" from the basis set library.

  label    atoms   charge   prim   cont     basis
  ----------------------------------------------------------------------
  C_         24    6.0000    35    23      [10s5p2d|4s3p2d]                                   
  N_          2    7.0000    35    23      [10s5p2d|4s3p2d]                                   
  O_          2    8.0000    35    23      [10s5p2d|4s3p2d]                                   
  H_         26    1.0000    11     9      [5s2p|3s2p]                                        
  ----------------------------------------------------------------------
  total:     54  200.0000  1266   878
  ----------------------------------------------------------------------
  Spherical harmonic basis used.

  Threshold for neglecting AO integrals:  1.00D-12

  Max    interatomic separation is   32.8215 Angstrom (   62.0237 Bohr)
  between atoms   46 and   27, "H_r   " and "O_a   ".

  Min HX interatomic separation is    1.0081 Angstrom (    1.9050 Bohr)

  Min YX interatomic separation is    1.2329 Angstrom (    2.3298 Bohr)


  Bond distances (Angstrom):
  --------------------------

                  atom 1     atom 2       distance
                  ------     ------       --------
  bond distance:  C_b        C_a          1.376579
  bond distance:  C_c        C_b          1.437186
  bond distance:  C_d        C_c          1.377041
  bond distance:  C_e        C_d          1.436906
  bond distance:  C_f        C_e          1.377198
  bond distance:  C_g        C_f          1.436942
  bond distance:  C_h        C_g          1.377086
  bond distance:  C_i        C_h          1.437319
  bond distance:  C_j        C_i          1.376636
  bond distance:  C_k        C_j          1.438185
  bond distance:  C_l        C_k          1.375631
  bond distance:  C_m        C_l          1.439785
  bond distance:  C_n        C_m          1.373596
  bond distance:  C_o        C_n          1.441293
  bond distance:  C_p        C_o          1.369697
  bond distance:  C_r        C_q          1.352901
  bond distance:  C_s        C_r          1.446580
  bond distance:  C_t        C_s          1.370288
  bond distance:  C_u        C_t          1.441797
  bond distance:  C_v        C_u          1.373861
  bond distance:  C_w        C_v          1.439221
  bond distance:  C_x        C_a          1.437871
  bond distance:  C_x        C_w          1.375652
  bond distance:  N_a        C_p          1.368788
  bond distance:  N_b        C_q          1.458875
  bond distance:  O_a        N_b          1.236939
  bond distance:  O_b        N_b          1.232887
  bond distance:  H_a        C_a          1.099815
  bond distance:  H_b        C_b          1.100150
  bond distance:  H_c        C_c          1.099886
  bond distance:  H_d        C_d          1.100195
  bond distance:  H_e        C_e          1.099923
  bond distance:  H_f        C_f          1.100261
  bond distance:  H_g        C_g          1.099934
  bond distance:  H_h        C_h          1.100361
  bond distance:  H_i        C_i          1.099924
  bond distance:  H_j        C_j          1.100525
  bond distance:  H_k        C_k          1.099866
  bond distance:  H_l        C_l          1.100837
  bond distance:  H_m        C_m          1.099619
  bond distance:  H_n        C_n          1.101199
  bond distance:  H_o        C_o          1.098582
  bond distance:  H_p        C_p          1.097232
  bond distance:  H_q        N_a          1.010765
  bond distance:  H_r        N_a          1.008090
  bond distance:  H_s        C_q          1.091651
  bond distance:  H_t        C_r          1.096675
  bond distance:  H_u        C_s          1.098474
  bond distance:  H_v        C_t          1.099853
  bond distance:  H_w        C_u          1.099420
  bond distance:  H_x        C_v          1.100082
  bond distance:  H_y        C_w          1.099678
  bond distance:  H_z        C_x          1.100117


  Bond angles (degrees):
  ----------------------

                  atom 1     atom 2     atom 3         angle
                  ------     ------     ------         -----
  bond angle:     C_b        C_a        C_x          123.743
  bond angle:     C_b        C_a        H_a          118.596
  bond angle:     C_x        C_a        H_a          117.661
  bond angle:     C_a        C_b        C_c          124.003
  bond angle:     C_a        C_b        H_b          118.461
  bond angle:     C_c        C_b        H_b          117.536
  bond angle:     C_b        C_c        C_d          123.792
  bond angle:     C_b        C_c        H_c          117.650
  bond angle:     C_d        C_c        H_c          118.558
  bond angle:     C_c        C_d        C_e          124.037
  bond angle:     C_c        C_d        H_d          118.434
  bond angle:     C_e        C_d        H_d          117.528
  bond angle:     C_d        C_e        C_f          123.811
  bond angle:     C_d        C_e        H_e          117.644
  bond angle:     C_f        C_e        H_e          118.545
  bond angle:     C_e        C_f        C_g          124.094
  bond angle:     C_e        C_f        H_f          118.403
  bond angle:     C_g        C_f        H_f          117.503
  bond angle:     C_f        C_g        C_h          123.809
  bond angle:     C_f        C_g        H_g          117.641
  bond angle:     C_h        C_g        H_g          118.550
  bond angle:     C_g        C_h        C_i          124.184
  bond angle:     C_g        C_h        H_h          118.360
  bond angle:     C_i        C_h        H_h          117.456
  bond angle:     C_h        C_i        C_j          123.785
  bond angle:     C_h        C_i        H_i          117.638
  bond angle:     C_j        C_i        H_i          118.577
  bond angle:     C_i        C_j        C_k          124.333
  bond angle:     C_i        C_j        H_j          118.291
  bond angle:     C_k        C_j        H_j          117.376
  bond angle:     C_j        C_k        C_l          123.717
  bond angle:     C_j        C_k        H_k          117.636
  bond angle:     C_l        C_k        H_k          118.647
  bond angle:     C_k        C_l        C_m          124.616
  bond angle:     C_k        C_l        H_l          118.148
  bond angle:     C_m        C_l        H_l          117.236
  bond angle:     C_l        C_m        C_n          123.484
  bond angle:     C_l        C_m        H_m          117.669
  bond angle:     C_n        C_m        H_m          118.847
  bond angle:     C_m        C_n        C_o          125.198
  bond angle:     C_m        C_n        H_n          117.798
  bond angle:     C_o        C_n        H_n          117.004
  bond angle:     C_n        C_o        C_p          122.202
  bond angle:     C_n        C_o        H_o          118.417
  bond angle:     C_p        C_o        H_o          119.381
  bond angle:     C_o        C_p        N_a          126.190
  bond angle:     C_o        C_p        H_p          119.403
  bond angle:     N_a        C_p        H_p          114.407
  bond angle:     C_r        C_q        N_b          121.108
  bond angle:     C_r        C_q        H_s          126.159
  bond angle:     N_b        C_q        H_s          112.733
  bond angle:     C_q        C_r        C_s          123.261
  bond angle:     C_q        C_r        H_t          117.711
  bond angle:     C_s        C_r        H_t          119.028
  bond angle:     C_r        C_s        C_t          122.543
  bond angle:     C_r        C_s        H_u          118.285
  bond angle:     C_t        C_s        H_u          119.173
  bond angle:     C_s        C_t        C_u          124.033
  bond angle:     C_s        C_t        H_v          118.495
  bond angle:     C_u        C_t        H_v          117.472
  bond angle:     C_t        C_u        C_v          123.417
  bond angle:     C_t        C_u        H_w          117.745
  bond angle:     C_v        C_u        H_w          118.838
  bond angle:     C_u        C_v        C_w          124.018
  bond angle:     C_u        C_v        H_x          118.508
  bond angle:     C_w        C_v        H_x          117.474
  bond angle:     C_v        C_w        C_x          123.637
  bond angle:     C_v        C_w        H_y          117.685
  bond angle:     C_x        C_w        H_y          118.678
  bond angle:     C_a        C_x        C_w          123.993
  bond angle:     C_a        C_x        H_z          117.522
  bond angle:     C_w        C_x        H_z          118.484
  bond angle:     C_p        N_a        H_q          120.850
  bond angle:     C_p        N_a        H_r          121.066
  bond angle:     H_q        N_a        H_r          118.083
  bond angle:     C_q        N_b        O_a          115.496
  bond angle:     C_q        N_b        O_b          118.912
  bond angle:     O_a        N_b        O_b          125.593




 Principal moments of inertia (u*A**2) and principal axes
 --------------------------------------------------------

   IA     140.262994         -0.275195    0.961388    0.000000
   IB   37833.783511          0.961388    0.275195    0.000000
   IC   37974.046505          0.000000    0.000000    1.000000


 Rotational constants
 --------------------

@    The molecule is planar.

               A                   B                   C

           3603.0815             13.3579             13.3085 MHz
            0.120186            0.000446            0.000444 cm-1


@  Nuclear repulsion energy : 1740.311733291155 Hartree


                     .---------------------------------------.
                     | Starting in Integral Section (HERMIT) |
                     `---------------------------------------'



 ***************************************************************************************
 ****************** Output from **INTEGRALS input processing (HERMIT) ******************
 ***************************************************************************************


 - Using defaults, no **INTEGRALS input found

 Default print level:        1

 Calculation of one-electron Hamiltonian integrals.

 Center of mass  (bohr):      0.093454216468     -0.289436425668      0.000000000000
 Operator center (bohr):      0.000000000000      0.000000000000      0.000000000000
 Gauge origin    (bohr):      0.000000000000      0.000000000000      0.000000000000
 Dipole origin   (bohr):      0.000000000000      0.000000000000      0.000000000000


     ************************************************************************
     ************************** Output from HERINT **************************
     ************************************************************************



                      Nuclear contribution to dipole moments
                      --------------------------------------

                 au               Debye          C m (/(10**-30)

      x      0.00000383         0.00000973         0.00003247
      y     -0.00000583        -0.00001482        -0.00004943
      z      0.00000000         0.00000000         0.00000000


  Time used in ONEDRV     is       1.87 seconds
  Time used in HUCKEL     is       0.46 seconds
  Time used in OVERLAP    is       0.21 seconds
  Time used in POPOVLP    is       0.40 seconds
  Time used in R2         is       0.25 seconds
  Time used in R4         is       0.29 seconds
  Time used in DIPLEN     is       0.26 seconds
  Time used in QUADRUP    is       0.52 seconds
  Time used in KINENE     is       0.38 seconds
  Time used in GABGEN     is       1.28 seconds
  Total CPU  time used in HERMIT:   5.91 seconds
  Total wall time used in HERMIT:   5.97 seconds


                        .----------------------------------.
                        | End of Integral Section (HERMIT) |
                        `----------------------------------'



                   .--------------------------------------------.
                   | Starting in Wave Function Section (SIRIUS) |
                   `--------------------------------------------'



@ Primary orbitals are deleted during canonical orthonormalization
@   because of detected numerical linear dependence or too large coefficients.
@ Eigenvalue threshold for num. lin. dep. =  1.00D-06

@   2 MO components are deleted in symmetry    1
 Overlap eigenvalues of the deleted orbitals:
  6.90D-07  1.56D-07

 Max MO coeff. of last deleted MO & limit:  3.37D+02  1.00D+03

WARNING: Orbitals have been deleted because of numerical
   linear dependence although not requested in input.

 *** Output from Huckel module :

     Using EWMO model:          T
     Using EHT  model:          F
     Number of Huckel orbitals each symmetry:  166

 EWMO - Energy Weighted Maximum Overlap - is a Huckel type method,
        which normally is better than Extended Huckel Theory.
 Reference: Linderberg and Ohrn, Propagators in Quantum Chemistry (Wiley, 1973)

 Huckel EWMO eigenvalues for symmetry :  1
          -20.684753     -20.683497     -15.677079     -15.674962     -11.359394
          -11.359350     -11.359118     -11.359058     -11.358824     -11.358586
          -11.357741     -11.356591     -11.355230     -11.353765     -11.352311
          -11.351023     -11.348583     -11.347777     -11.346971     -11.346307
          -11.345818     -11.345522     -11.345464     -11.345425     -11.345311
          -11.345297     -11.345197     -11.345189      -1.964011      -1.792674
           -1.789301      -1.780329      -1.762146      -1.731489      -1.686309
           -1.626472      -1.553811      -1.473325      -1.442154      -1.378556
           -1.286931      -1.210078      -1.196357      -1.184738      -1.150264
           -1.104614      -1.101462      -1.047056      -1.014902      -0.985810
           -0.941618      -0.919563      -0.878671      -0.855342      -0.852013
           -0.825157      -0.817088      -0.783067      -0.764995      -0.747067
           -0.742305      -0.737399      -0.702586      -0.691743      -0.677046
           -0.662816      -0.654788      -0.634880      -0.620163      -0.615685
           -0.598782      -0.586029      -0.575561      -0.573885      -0.558293
           -0.540747      -0.532295      -0.530884      -0.523157      -0.507304
           -0.499012      -0.494633      -0.492781      -0.490185      -0.488753
           -0.486517      -0.484696      -0.479496      -0.479291      -0.474729
           -0.474639      -0.457411      -0.450656      -0.426088      -0.414608
           -0.398388      -0.382666      -0.376948      -0.363349      -0.355208
           -0.335806      -0.304341      -0.282961      -0.264085      -0.247935
           -0.234409      -0.229133      -0.223314      -0.214413      -0.207450
           -0.202165      -0.200917      -0.198323      -0.195725      -0.194224
           -0.190584      -0.166727      -0.142733      -0.138992      -0.135175
           -0.132643      -0.131589      -0.131336      -0.130637      -0.129925
           -0.129796      -0.129494      -0.129402      -0.128978      -0.128684
           -0.127673      -0.127369      -0.127185      -0.126476      -0.126268
           -0.126008      -0.125581      -0.124706      -0.124538      -0.123961
           -0.123650      -0.123200      -0.112568      -0.111634      -0.108803
           -0.106726      -0.104118      -0.101936      -0.099435      -0.097321
           -0.094962      -0.093758      -0.091421      -0.090788      -0.088993
           -0.088193      -0.087181      -0.086294      -0.085735      -0.085136
           -0.084454      -0.083192      -0.081955      -0.080787      -0.079839
           -0.079342

 **********************************************************************
 *SIRIUS* a direct, restricted step, second order MCSCF program       *
 **********************************************************************

 
     Date and time (Linux)  : Tue May 27 13:42:38 2025
     Host name              : xm033                                   

 Title lines from ".mol" input file:
     blah                                                                    
     blah                                                                    

 Print level on unit LUPRI =   2 is   0
 Print level on unit LUW4  =   2 is   5

@    Restricted, closed shell Hartree-Fock calculation.

@    Time-dependent Hartree-Fock calculation (random phase approximation).
 Fock matrices are calculated directly and in parallel without use of integrals on disk.

 Initial molecular orbitals are obtained according to
 ".MOSTART EWMO  " input option

     Wave function specification
     ============================
@    Wave function type        --- HF ---
@    Number of closed shell electrons         200
@    Number of electrons in active shells       0
@    Total charge of the molecule               0

@    Spin multiplicity and 2 M_S                1         0
@    Total number of symmetries                 1 (point group: C1 )
@    Reference state symmetry                   1 (irrep name : A  )

     Orbital specifications
     ======================
@    Abelian symmetry species          All |    1
@                                          |  A  
                                       --- |  ---
@    Occupied SCF orbitals             100 |  100
@    Secondary orbitals                776 |  776
@    Total number of orbitals          876 |  876
@    Number of basis functions         878 |  878

     Optimization information
     ========================
@    Number of configurations                 1
@    Number of orbital rotations          77600
     ------------------------------------------
@    Total number of variables            77601

     Maximum number of Fock   iterations      0
     Maximum number of DIIS   iterations     60
     Maximum number of QC-SCF iterations     60
     Threshold for SCF convergence     1.00D-05

    INFORMATION: Switched to "new" integral transformation (from 1988 ;-) )
    because more than 255 basis functions.


 ***********************************************
 ***** DIIS acceleration of SCF iterations *****
 ***********************************************

 C1-DIIS algorithm; max error vectors =    8

 Iter      Total energy        Error norm    Delta(E)  DIIS dim.
 -----------------------------------------------------------------------------
   1  Screening settings (-IFTHRS, JTDIIS, DIFDEN, times)   -9    1    T  7.63D+00  7.70D+00
@  1    -1178.13374910        7.64173D+00   -1.18D+03    1
      Virial theorem: -V/T =      2.012478
@    MULPOP   C_a     0.24; C_b     0.32; C_c     0.25; C_d     0.32; C_e     0.25; C_f     0.31; C_g     0.24; C_h     0.29; C_i     0.22; C_j     0.32; 
@             C_k     0.20; C_l     0.37; C_m     0.19; C_n     0.32; C_o    -0.18; C_p     0.83; C_q     0.75; C_r     0.07; C_s     0.22; C_t     0.38; 
@             C_u     0.27; C_v     0.30; C_w     0.27; C_x     0.31; N_a    -0.24; N_b     0.97; O_a    -1.16; O_b    -1.16; H_a    -0.24; H_b    -0.24; 
@    MULPOP    dipole moment & components:     33.7835;      -10.8741     31.9856      0.0000
   1  Level shift: doubly occupied orbital energies shifted by -2.00D-01
 -----------------------------------------------------------------------------
   2  Screening settings (-IFTHRS, JTDIIS, DIFDEN, times)   -9    2    T  3.50D+00  3.52D+00
@  2    -1181.87594061        2.88612D+00   -3.74D+00    2
      Virial theorem: -V/T =      2.001020
@    MULPOP   C_a     0.65; C_b     0.55; C_c     0.63; C_d     0.58; C_e     0.65; C_f     0.56; C_g     0.63; C_h     0.57; C_i     0.66; C_j     0.56; 
@             C_k     0.66; C_l     0.57; C_m     0.81; C_n     0.37; C_o     0.70; C_p     0.67; C_q     0.72; C_r     0.49; C_s     0.73; C_t     0.53; 
@             C_u     0.67; C_v     0.55; C_w     0.62; C_x     0.60; N_a    -0.17; N_b     0.31; O_a    -0.41; O_b    -0.52; H_a    -0.60; H_b    -0.62; 
@    MULPOP    dipole moment & components:     13.6244;       -5.6619     12.3923      0.0000
   2  Level shift: doubly occupied orbital energies shifted by -1.00D-01
 -----------------------------------------------------------------------------
   3  Screening settings (-IFTHRS, JTDIIS, DIFDEN, times)   -9    3    T  3.36D+00  3.38D+00
@  3    -1182.35637929        9.97410D-01   -4.80D-01    3
      Virial theorem: -V/T =      2.001288
@    MULPOP   C_a     0.69; C_b     0.56; C_c     0.68; C_d     0.59; C_e     0.69; C_f     0.57; C_g     0.67; C_h     0.57; C_i     0.69; C_j     0.57; 
@             C_k     0.70; C_l     0.60; C_m     0.78; C_n     0.40; C_o     0.76; C_p     0.87; C_q     1.25; C_r     0.58; C_s     0.73; C_t     0.51; 
@             C_u     0.74; C_v     0.59; C_w     0.67; C_x     0.61; N_a    -0.30; N_b     0.79; O_a    -0.94; O_b    -0.86; H_a    -0.63; H_b    -0.65; 
@    MULPOP    dipole moment & components:     11.9183;       -5.7479     10.4407      0.0000
   3  Level shift: doubly occupied orbital energies shifted by -5.00D-02
 -----------------------------------------------------------------------------
   4  Screening settings (-IFTHRS, JTDIIS, DIFDEN, times)   -9    4    T  3.33D+00  3.35D+00
@  4    -1182.42793724        3.05592D-01   -7.16D-02    4
      Virial theorem: -V/T =      2.002710
@    MULPOP   C_a     0.70; C_b     0.55; C_c     0.69; C_d     0.59; C_e     0.70; C_f     0.56; C_g     0.68; C_h     0.56; C_i     0.71; C_j     0.56; 
@             C_k     0.72; C_l     0.58; C_m     0.81; C_n     0.36; C_o     0.77; C_p     0.91; C_q     1.19; C_r     0.57; C_s     0.74; C_t     0.51; 
@             C_u     0.77; C_v     0.60; C_w     0.68; C_x     0.61; N_a    -0.32; N_b     0.57; O_a    -0.80; O_b    -0.82; H_a    -0.63; H_b    -0.66; 
@    MULPOP    dipole moment & components:     11.2099;       -5.7227      9.6392      0.0000
   4  Level shift: doubly occupied orbital energies shifted by -2.50D-02
 -----------------------------------------------------------------------------
   5  Screening settings (-IFTHRS, JTDIIS, DIFDEN, times)  -13    5    F  4.27D+00  4.29D+00
@  5    -1182.44299960        1.29403D-01   -1.51D-02    5
      Virial theorem: -V/T =      2.002174
@    MULPOP   C_a     0.70; C_b     0.53; C_c     0.68; C_d     0.57; C_e     0.70; C_f     0.54; C_g     0.67; C_h     0.54; C_i     0.71; C_j     0.54; 
@             C_k     0.72; C_l     0.57; C_m     0.83; C_n     0.34; C_o     0.76; C_p     0.88; C_q     1.25; C_r     0.47; C_s     0.77; C_t     0.45; 
@             C_u     0.80; C_v     0.55; C_w     0.69; C_x     0.58; N_a    -0.34; N_b     0.60; O_a    -0.84; O_b    -0.81; H_a    -0.62; H_b    -0.64; 
@    MULPOP    dipole moment & components:     10.3317;       -5.7062      8.6130      0.0000
   5  Level shift: doubly occupied orbital energies shifted by -1.25D-02
 -----------------------------------------------------------------------------
   6  Screening settings (-IFTHRS, JTDIIS, DIFDEN, times)  -13    6    T  4.04D+00  4.07D+00
@  6    -1182.44739883        6.88419D-02   -4.40D-03    6
      Virial theorem: -V/T =      2.002044
@    MULPOP   C_a     0.71; C_b     0.52; C_c     0.68; C_d     0.56; C_e     0.70; C_f     0.53; C_g     0.68; C_h     0.53; C_i     0.71; C_j     0.53; 
@             C_k     0.72; C_l     0.56; C_m     0.82; C_n     0.33; C_o     0.76; C_p     0.87; C_q     1.25; C_r     0.45; C_s     0.80; C_t     0.42; 
@             C_u     0.82; C_v     0.53; C_w     0.70; C_x     0.56; N_a    -0.34; N_b     0.58; O_a    -0.82; O_b    -0.81; H_a    -0.62; H_b    -0.64; 
@    MULPOP    dipole moment & components:      9.8505;       -5.7280      8.0139      0.0000
   6  Level shift: doubly occupied orbital energies shifted by -1.25D-02
 -----------------------------------------------------------------------------
   7  Screening settings (-IFTHRS, JTDIIS, DIFDEN, times)  -13    7    T  3.96D+00  3.98D+00
@  7    -1182.44900578        3.22415D-02   -1.61D-03    7
      Virial theorem: -V/T =      2.002061
@    MULPOP   C_a     0.72; C_b     0.51; C_c     0.68; C_d     0.55; C_e     0.70; C_f     0.52; C_g     0.68; C_h     0.53; C_i     0.71; C_j     0.53; 
@             C_k     0.72; C_l     0.56; C_m     0.82; C_n     0.33; C_o     0.75; C_p     0.87; C_q     1.26; C_r     0.43; C_s     0.82; C_t     0.40; 
@             C_u     0.83; C_v     0.52; C_w     0.71; C_x     0.55; N_a    -0.35; N_b     0.57; O_a    -0.82; O_b    -0.80; H_a    -0.62; H_b    -0.64; 
@    MULPOP    dipole moment & components:      9.5392;       -5.6807      7.6633      0.0000
 -----------------------------------------------------------------------------
   8  Screening settings (-IFTHRS, JTDIIS, DIFDEN, times)  -13    8    T  3.93D+00  3.95D+00
@  8    -1182.44935275        1.43765D-02   -3.47D-04    8
      Virial theorem: -V/T =      2.002059
@    MULPOP   C_a     0.72; C_b     0.51; C_c     0.68; C_d     0.55; C_e     0.70; C_f     0.53; C_g     0.68; C_h     0.53; C_i     0.71; C_j     0.54; 
@             C_k     0.72; C_l     0.56; C_m     0.82; C_n     0.34; C_o     0.75; C_p     0.87; C_q     1.27; C_r     0.41; C_s     0.83; C_t     0.39; 
@             C_u     0.84; C_v     0.51; C_w     0.72; C_x     0.55; N_a    -0.35; N_b     0.57; O_a    -0.82; O_b    -0.80; H_a    -0.62; H_b    -0.64; 
@    MULPOP    dipole moment & components:      9.3057;       -5.6336      7.4066      0.0000
 -----------------------------------------------------------------------------
   9  Screening settings (-IFTHRS, JTDIIS, DIFDEN, times)  -13    9    T  3.85D+00  3.87D+00
@  9    -1182.44940811        5.85877D-03   -5.54D-05    8
      Virial theorem: -V/T =      2.002052
@    MULPOP   C_a     0.72; C_b     0.51; C_c     0.68; C_d     0.56; C_e     0.70; C_f     0.53; C_g     0.68; C_h     0.54; C_i     0.70; C_j     0.54; 
@             C_k     0.71; C_l     0.57; C_m     0.81; C_n     0.34; C_o     0.75; C_p     0.88; C_q     1.27; C_r     0.41; C_s     0.83; C_t     0.39; 
@             C_u     0.84; C_v     0.52; C_w     0.72; C_x     0.55; N_a    -0.35; N_b     0.57; O_a    -0.82; O_b    -0.80; H_a    -0.62; H_b    -0.64; 
@    MULPOP    dipole moment & components:      9.1894;       -5.5661      7.3119      0.0000
 -----------------------------------------------------------------------------
  10  Screening settings (-IFTHRS, JTDIIS, DIFDEN, times)  -13   10    T  3.85D+00  3.87D+00
@ 10    -1182.44942307        3.62040D-03   -1.50D-05    8
      Virial theorem: -V/T =      2.002051
@    MULPOP   C_a     0.71; C_b     0.52; C_c     0.68; C_d     0.56; C_e     0.69; C_f     0.53; C_g     0.67; C_h     0.54; C_i     0.70; C_j     0.54; 
@             C_k     0.71; C_l     0.57; C_m     0.81; C_n     0.34; C_o     0.75; C_p     0.88; C_q     1.28; C_r     0.41; C_s     0.83; C_t     0.39; 
@             C_u     0.83; C_v     0.52; C_w     0.71; C_x     0.55; N_a    -0.35; N_b     0.57; O_a    -0.82; O_b    -0.80; H_a    -0.62; H_b    -0.64; 
@    MULPOP    dipole moment & components:      9.1072;       -5.5115      7.2502      0.0000
 -----------------------------------------------------------------------------
  11  Screening settings (-IFTHRS, JTDIIS, DIFDEN, times)  -13   11    T  3.68D+00  3.70D+00
@ 11    -1182.44943011        2.19033D-03   -7.04D-06    8
      Virial theorem: -V/T =      2.002052
@    MULPOP   C_a     0.71; C_b     0.52; C_c     0.68; C_d     0.56; C_e     0.69; C_f     0.54; C_g     0.67; C_h     0.54; C_i     0.70; C_j     0.55; 
@             C_k     0.71; C_l     0.57; C_m     0.81; C_n     0.35; C_o     0.74; C_p     0.88; C_q     1.27; C_r     0.42; C_s     0.83; C_t     0.39; 
@             C_u     0.83; C_v     0.52; C_w     0.71; C_x     0.55; N_a    -0.35; N_b     0.57; O_a    -0.82; O_b    -0.80; H_a    -0.62; H_b    -0.64; 
@    MULPOP    dipole moment & components:      9.0350;       -5.4619      7.1971      0.0000
 -----------------------------------------------------------------------------
  12  Screening settings (-IFTHRS, JTDIIS, DIFDEN, times)  -13   12    T  3.65D+00  3.67D+00
@ 12    -1182.44943305        8.10002D-04   -2.94D-06    8
      Virial theorem: -V/T =      2.002051
@    MULPOP   C_a     0.71; C_b     0.52; C_c     0.67; C_d     0.57; C_e     0.69; C_f     0.54; C_g     0.67; C_h     0.55; C_i     0.69; C_j     0.55; 
@             C_k     0.70; C_l     0.58; C_m     0.80; C_n     0.35; C_o     0.74; C_p     0.88; C_q     1.27; C_r     0.42; C_s     0.83; C_t     0.40; 
@             C_u     0.83; C_v     0.52; C_w     0.71; C_x     0.56; N_a    -0.35; N_b     0.57; O_a    -0.82; O_b    -0.80; H_a    -0.62; H_b    -0.64; 
@    MULPOP    dipole moment & components:      8.9728;       -5.4185      7.1520      0.0000
 -----------------------------------------------------------------------------
  13  Screening settings (-IFTHRS, JTDIIS, DIFDEN, times)  -13   13    T  3.59D+00  3.61D+00
@ 13    -1182.44943339        3.62832D-04   -3.42D-07    8
      Virial theorem: -V/T =      2.002051
@    MULPOP   C_a     0.71; C_b     0.52; C_c     0.67; C_d     0.57; C_e     0.69; C_f     0.54; C_g     0.67; C_h     0.55; C_i     0.69; C_j     0.55; 
@             C_k     0.70; C_l     0.58; C_m     0.80; C_n     0.35; C_o     0.74; C_p     0.88; C_q     1.27; C_r     0.42; C_s     0.83; C_t     0.40; 
@             C_u     0.83; C_v     0.52; C_w     0.71; C_x     0.56; N_a    -0.35; N_b     0.57; O_a    -0.82; O_b    -0.80; H_a    -0.62; H_b    -0.64; 
@    MULPOP    dipole moment & components:      8.9513;       -5.4039      7.1361      0.0000
 -----------------------------------------------------------------------------
  14  Screening settings (-IFTHRS, JTDIIS, DIFDEN, times)  -13   14    T  3.44D+00  3.46D+00
@ 14    -1182.44943342        1.69907D-04   -3.59D-08    8
      Virial theorem: -V/T =      2.002051
@    MULPOP   C_a     0.71; C_b     0.52; C_c     0.67; C_d     0.57; C_e     0.69; C_f     0.54; C_g     0.67; C_h     0.55; C_i     0.69; C_j     0.55; 
@             C_k     0.70; C_l     0.58; C_m     0.80; C_n     0.35; C_o     0.74; C_p     0.88; C_q     1.27; C_r     0.42; C_s     0.83; C_t     0.40; 
@             C_u     0.83; C_v     0.52; C_w     0.71; C_x     0.56; N_a    -0.35; N_b     0.57; O_a    -0.82; O_b    -0.80; H_a    -0.62; H_b    -0.64; 
@    MULPOP    dipole moment & components:      8.9464;       -5.4004      7.1325      0.0000
 -----------------------------------------------------------------------------
  15  Screening settings (-IFTHRS, JTDIIS, DIFDEN, times)  -13   15    T  3.38D+00  3.40D+00
@ 15    -1182.44943343        7.99564D-05   -7.45D-09    8
      Virial theorem: -V/T =      2.002051
@    MULPOP   C_a     0.71; C_b     0.52; C_c     0.67; C_d     0.57; C_e     0.69; C_f     0.54; C_g     0.67; C_h     0.55; C_i     0.69; C_j     0.55; 
@             C_k     0.70; C_l     0.58; C_m     0.80; C_n     0.35; C_o     0.74; C_p     0.88; C_q     1.27; C_r     0.42; C_s     0.83; C_t     0.40; 
@             C_u     0.83; C_v     0.52; C_w     0.71; C_x     0.56; N_a    -0.35; N_b     0.57; O_a    -0.82; O_b    -0.80; H_a    -0.62; H_b    -0.64; 
@    MULPOP    dipole moment & components:      8.9444;       -5.3990      7.1311      0.0000
 -----------------------------------------------------------------------------
  16  Screening settings (-IFTHRS, JTDIIS, DIFDEN, times)  -13   16    T  3.31D+00  3.33D+00
@ 16    -1182.44943343        3.46859D-05   -1.01D-09    8
      Virial theorem: -V/T =      2.002051
@    MULPOP   C_a     0.71; C_b     0.52; C_c     0.67; C_d     0.57; C_e     0.69; C_f     0.54; C_g     0.67; C_h     0.55; C_i     0.69; C_j     0.55; 
@             C_k     0.70; C_l     0.58; C_m     0.80; C_n     0.35; C_o     0.74; C_p     0.88; C_q     1.27; C_r     0.42; C_s     0.83; C_t     0.40; 
@             C_u     0.83; C_v     0.52; C_w     0.71; C_x     0.56; N_a    -0.35; N_b     0.57; O_a    -0.82; O_b    -0.80; H_a    -0.62; H_b    -0.64; 
@    MULPOP    dipole moment & components:      8.9440;       -5.3987      7.1309      0.0000
 -----------------------------------------------------------------------------
  17  Screening settings (-IFTHRS, JTDIIS, DIFDEN, times)  -13   17    T  3.46D+00  3.48D+00
@ 17    -1182.44943343        2.33988D-05   -3.89D-10    8
      Virial theorem: -V/T =      2.002051
@    MULPOP   C_a     0.71; C_b     0.52; C_c     0.67; C_d     0.57; C_e     0.69; C_f     0.54; C_g     0.67; C_h     0.55; C_i     0.69; C_j     0.55; 
@             C_k     0.70; C_l     0.58; C_m     0.80; C_n     0.35; C_o     0.74; C_p     0.88; C_q     1.27; C_r     0.42; C_s     0.83; C_t     0.40; 
@             C_u     0.83; C_v     0.52; C_w     0.71; C_x     0.56; N_a    -0.35; N_b     0.57; O_a    -0.82; O_b    -0.80; H_a    -0.62; H_b    -0.64; 
@    MULPOP    dipole moment & components:      8.9438;       -5.3986      7.1307      0.0000
 -----------------------------------------------------------------------------
  18  Screening settings (-IFTHRS, JTDIIS, DIFDEN, times)  -13   18    T  3.27D+00  3.29D+00
@ 18    -1182.44943343        1.01168D-05   -1.36D-10    8
      Virial theorem: -V/T =      2.002051
@    MULPOP   C_a     0.71; C_b     0.52; C_c     0.67; C_d     0.57; C_e     0.69; C_f     0.54; C_g     0.67; C_h     0.55; C_i     0.69; C_j     0.55; 
@             C_k     0.70; C_l     0.58; C_m     0.80; C_n     0.35; C_o     0.74; C_p     0.88; C_q     1.27; C_r     0.42; C_s     0.83; C_t     0.40; 
@             C_u     0.83; C_v     0.52; C_w     0.71; C_x     0.56; N_a    -0.35; N_b     0.57; O_a    -0.82; O_b    -0.80; H_a    -0.62; H_b    -0.64; 
@    MULPOP    dipole moment & components:      8.9437;       -5.3985      7.1307      0.0000
 -----------------------------------------------------------------------------
  19  Screening settings (-IFTHRS, JTDIIS, DIFDEN, times)  -13   19    T  3.26D+00  3.28D+00
@ 19    -1182.44943343        5.02648D-06   -6.78D-11    8

@ *** DIIS converged in  19 iterations !
@     Converged SCF energy, gradient:  -1182.449433432951    5.03D-06
    - total time used in SIRFCK :              0.00 seconds


 *** SCF orbital energy analysis ***

 Only the 20 lowest virtual orbital energies printed in each symmetry.

 Number of electrons :  200
 Orbital occupations :  100

 Sym       Hartree-Fock orbital energies

1 A     -20.59782034   -20.59501606   -15.84528360   -15.59969763   -11.30836451
        -11.29600265   -11.29446545   -11.28472743   -11.27663281   -11.27074015
        -11.26613766   -11.26596487   -11.26238907   -11.26163380   -11.25921947
        -11.25890881   -11.25757394   -11.25647345   -11.25616170   -11.25416313
        -11.25340142   -11.25293558   -11.25053668   -11.24740733   -11.24380782
        -11.23949908   -11.23462428   -11.23219284    -1.58409938    -1.38176212
         -1.23945814    -1.14666286    -1.13192239    -1.12258365    -1.11386067
         -1.10324706    -1.08974328    -1.07346587    -1.05462411    -1.03338164
         -1.00989815    -0.98436059    -0.95735832    -0.93843548    -0.89240878
         -0.86314214    -0.83464204    -0.80986983    -0.79226778    -0.78596830
         -0.77761512    -0.77308161    -0.76607068    -0.76260606    -0.75279846
         -0.75066268    -0.73660662    -0.71769259    -0.71399524    -0.69664644
         -0.68102902    -0.67574853    -0.66959997    -0.65489965    -0.65041763
         -0.63352461    -0.62710085    -0.61424919    -0.60242785    -0.59531928
         -0.58260934    -0.56999959    -0.56732027    -0.55446951    -0.54795863
         -0.54323935    -0.53396530    -0.53056247    -0.52637548    -0.52350122
         -0.52009788    -0.51464739    -0.50938036    -0.50419833    -0.49932973
         -0.49726767    -0.48706363    -0.48124624    -0.47797732    -0.47595467
         -0.46167785    -0.44336892    -0.43964480    -0.42092704    -0.39468717
         -0.36473521    -0.33141619    -0.29552164    -0.25885593    -0.22458775
          0.00355993     0.02136905     0.02788072     0.03010015     0.03182091
          0.03506754     0.03545152     0.03654199     0.04026277     0.04286219
          0.04667049     0.05167621     0.05579297     0.06174106     0.06653562
          0.07170090     0.07286472     0.07916806     0.08527101     0.08994922

    E(LUMO) :     0.00355993 au (symmetry 1)
  - E(HOMO) :    -0.22458775 au (symmetry 1)
  ------------------------------------------
    gap     :     0.22814767 au

 --- Writing SIRIFC interface file

 CPU and wall time for SCF :     178.152     179.238


                       .-----------------------------------.
                       | --- Final results from SIRIUS --- |
                       `-----------------------------------'


@    Spin multiplicity:           1
@    Spatial symmetry:            1 ( irrep  A   in C1  )
@    Total charge of molecule:    0

@    Final HF energy:           -1182.449433432951                 
@    Nuclear repulsion:          1740.311733291155
@    Electronic energy:         -2922.761166724106

@    Final gradient norm:           0.000005026478

 
     Date and time (Linux)  : Tue May 27 13:45:39 2025
     Host name              : xm033                                   

File label for MO orbitals:  27May25   FOCKDIIS

 (Only coefficients > 0.0100 are printed.)

 Molecular orbitals for symmetry species 1  (A  )
 ------------------------------------------------

    Orbital        91       92       93       94       95       96       97
   7 C_a :2pz   -0.1224  -0.0950   0.0020   0.2252   0.1125  -0.1337   0.2249
  13 C_a :2pz   -0.0036  -0.0010   0.0008   0.0065   0.0042  -0.0085   0.0203
  15 C_a :3d1-   0.0036  -0.0104   0.0013   0.0061  -0.0073  -0.0145   0.0049
  30 C_b :2pz   -0.0344  -0.1805   0.0167   0.1909  -0.0335  -0.2168   0.1252
  33 C_b :2pz   -0.0027   0.0115  -0.0009  -0.0022   0.0083   0.0016   0.0081
  36 C_b :2pz   -0.0013  -0.0047   0.0004   0.0057  -0.0024  -0.0148   0.0111
  38 C_b :3d1-   0.0085  -0.0014   0.0007  -0.0104  -0.0115   0.0037  -0.0167
  53 C_c :2pz    0.1033  -0.2215   0.0297   0.0187  -0.2182  -0.1082  -0.1831
  59 C_c :2pz    0.0031  -0.0067   0.0003   0.0018  -0.0085  -0.0062  -0.0163
  61 C_c :3d1-   0.0089  -0.0034   0.0009  -0.0101  -0.0092   0.0082  -0.0146
  76 C_d :2pz    0.1751  -0.1733   0.0278  -0.1097  -0.2097   0.0508  -0.2221
  79 C_d :2pz   -0.0127   0.0040  -0.0011   0.0098   0.0007  -0.0080  -0.0042
  82 C_d :2pz    0.0039  -0.0040   0.0010  -0.0039  -0.0099   0.0046  -0.0191
  84 C_d :3d1-   0.0013   0.0097  -0.0011  -0.0071   0.0100   0.0118   0.0095
  99 C_e :2pz    0.2293  -0.0280   0.0121  -0.2276  -0.0242   0.2300   0.0039
 102 C_e :2pz   -0.0116   0.0066  -0.0010   0.0051   0.0082   0.0008   0.0072
 105 C_e :2pz    0.0038  -0.0005   0.0005  -0.0082  -0.0017   0.0126   0.0002
 107 C_e :3d1-   0.0054   0.0083  -0.0009  -0.0068   0.0112   0.0074   0.0138
 122 C_f :2pz    0.2177   0.0825  -0.0031  -0.2044   0.1188   0.1775   0.1554
 125 C_f :2pz   -0.0114  -0.0090   0.0009   0.0037  -0.0092   0.0048  -0.0029
 128 C_f :2pz    0.0048   0.0017  -0.0004  -0.0067   0.0067   0.0100   0.0134
 130 C_f :3d1-  -0.0068   0.0069  -0.0012   0.0096   0.0075  -0.0137   0.0049
 145 C_g :2pz    0.1449   0.2076  -0.0237  -0.0484   0.2309  -0.0816   0.1818
 148 C_g :2pz   -0.0108  -0.0063   0.0004   0.0081  -0.0037  -0.0076  -0.0017
 151 C_g :2pz    0.0035   0.0055  -0.0006  -0.0008   0.0090  -0.0027   0.0160
 153 C_g :3d1-  -0.0026   0.0084  -0.0013   0.0091   0.0051  -0.0145  -0.0025
 168 C_h :2pz    0.0651   0.2298  -0.0300   0.0817   0.1712  -0.1988   0.0332
 171 C_h :2pz   -0.0001  -0.0111   0.0016  -0.0096   0.0023   0.0044   0.0077
 174 C_h :2pz    0.0008   0.0061  -0.0006   0.0027   0.0067  -0.0129   0.0019
 176 C_h :3d1-  -0.0084  -0.0051   0.0004   0.0084  -0.0126  -0.0007  -0.0156
 191 C_i :2pz   -0.0647   0.1721  -0.0266   0.2228  -0.0497  -0.1695  -0.2257
 194 C_i :2pz    0.0003  -0.0106   0.0014  -0.0041  -0.0074   0.0061  -0.0048
 197 C_i :2pz   -0.0018   0.0032  -0.0006   0.0057   0.0000  -0.0120  -0.0197
 199 C_i :3d1-  -0.0081  -0.0023   0.0001   0.0083  -0.0128   0.0042  -0.0108
 214 C_j :2pz   -0.1436   0.0805  -0.0156   0.2243  -0.1738  -0.0231  -0.1982
 217 C_j :2pz    0.0118   0.0007   0.0001  -0.0067   0.0092  -0.0084  -0.0062
 220 C_j :2pz   -0.0021   0.0025  -0.0005   0.0083  -0.0088   0.0012  -0.0145
 222 C_j :3d1-  -0.0032  -0.0103   0.0014  -0.0078  -0.0038   0.0144   0.0139
 237 C_k :2pz   -0.2275  -0.0812   0.0064   0.1027  -0.2221   0.2135   0.0836
 240 C_k :2pz    0.0114  -0.0013   0.0004  -0.0093   0.0065   0.0030   0.0080
 243 C_k :2pz   -0.0039  -0.0008   0.0001   0.0047  -0.0112   0.0134   0.0076
 245 C_k :3d1-  -0.0074  -0.0098   0.0013  -0.0070  -0.0014   0.0112   0.0154
 260 C_l :2pz   -0.2475  -0.1707   0.0198  -0.0256  -0.1273   0.2185   0.2010
 263 C_l :2pz    0.0173   0.0134  -0.0017   0.0086  -0.0046   0.0016  -0.0005
 266 C_l :2pz   -0.0064  -0.0061   0.0008  -0.0035  -0.0022   0.0092   0.0133
 268 C_l :3d1-   0.0041  -0.0029   0.0006  -0.0104   0.0137  -0.0101  -0.0003
 283 C_m :2pz   -0.2310  -0.2420   0.0318  -0.1982   0.1045   0.0162   0.1340
 286 C_m :2pz    0.0116   0.0075  -0.0008  -0.0002   0.0075  -0.0101  -0.0060
 289 C_m :2pz   -0.0043  -0.0062   0.0008  -0.0067   0.0048   0.0014   0.0117
 291 C_m :3d1-  -0.0017  -0.0056   0.0009  -0.0101   0.0130  -0.0124  -0.0072
 306 C_n :2pz   -0.1794  -0.2207   0.0300  -0.2322   0.2033  -0.1353  -0.0359
 309 C_n :2pz    0.0134   0.0137  -0.0018   0.0127  -0.0111   0.0096   0.0087
 314 C_n :3d1-   0.0087   0.0081  -0.0010   0.0048   0.0008  -0.0077  -0.0143
 329 C_o :2pz   -0.0711  -0.1139   0.0163  -0.1591   0.1987  -0.2289  -0.2449
 335 C_o :2pz   -0.0026  -0.0042   0.0006  -0.0069   0.0107  -0.0162  -0.0234
 352 C_p :2pz    0.0250   0.0067  -0.0003  -0.0214   0.0560  -0.0944  -0.1334
 358 C_p :2pz   -0.0029  -0.0047   0.0007  -0.0068   0.0094  -0.0130  -0.0185
 360 C_p :3d1-   0.0085   0.0114  -0.0016   0.0144  -0.0169   0.0189   0.0201
 365 C_p :3d1-   0.0005   0.0026  -0.0004   0.0053  -0.0080   0.0104   0.0123
 375 C_q :2pz    0.1668  -0.1913   0.0377   0.2190   0.2364   0.2440  -0.2367
 378 C_q :2pz   -0.0034   0.0015  -0.0106  -0.0018   0.0002   0.0027  -0.0058
 381 C_q :2pz    0.0113  -0.0135  -0.0018   0.0152   0.0178   0.0211  -0.0248
 383 C_q :3d1-   0.0094  -0.0100  -0.0009   0.0096   0.0087   0.0070  -0.0048
 388 C_q :3d1-   0.0076  -0.0116  -0.0265   0.0081   0.0086   0.0083  -0.0074
 390 C_q :3d1+  -0.0015   0.0008  -0.0116  -0.0034  -0.0043  -0.0052   0.0057
 398 C_r :2pz    0.1927  -0.1999   0.0284   0.1976   0.1784   0.1455  -0.1024
 401 C_r :2pz   -0.0143   0.0152   0.0324  -0.0058  -0.0015   0.0023  -0.0040
 406 C_r :3d1-  -0.0040   0.0066  -0.0013  -0.0101  -0.0137  -0.0169   0.0187
 413 C_r :3d1+   0.0012  -0.0027  -0.0130   0.0009   0.0016   0.0026  -0.0038
 421 C_s :2pz    0.1661  -0.1144   0.0265   0.0403  -0.0537  -0.1478   0.2200
 424 C_s :2pz   -0.0075   0.0047  -0.0172  -0.0066  -0.0060  -0.0064   0.0078
 427 C_s :2pz   -0.0009   0.0012  -0.0012  -0.0028  -0.0060  -0.0125   0.0230
 429 C_s :3d1-  -0.0004   0.0046   0.0000  -0.0090  -0.0127  -0.0143   0.0132
 444 C_t :2pz    0.0899  -0.0047   0.0126  -0.0880  -0.1685  -0.2118   0.2050
 450 C_t :2pz    0.0055  -0.0041  -0.0017   0.0003  -0.0047  -0.0109   0.0166
 452 C_t :3d1-  -0.0096   0.0100  -0.0015  -0.0080  -0.0026   0.0054  -0.0139
 467 C_u :2pz   -0.0590   0.1637  -0.0115  -0.2206  -0.1933  -0.0790  -0.0825
 475 C_u :3d1-  -0.0088   0.0100  -0.0015  -0.0069   0.0004   0.0091  -0.0151
 490 C_v :2pz   -0.1425   0.2100  -0.0229  -0.1901  -0.0769   0.0772  -0.1937
 493 C_v :2pz    0.0113  -0.0104  -0.0028   0.0017  -0.0065  -0.0073  -0.0001
 496 C_v :2pz   -0.0064   0.0093   0.0003  -0.0098  -0.0059   0.0033  -0.0157
 498 C_v :3d1-  -0.0029  -0.0033  -0.0002   0.0104   0.0141   0.0103   0.0014
 513 C_w :2pz   -0.2142   0.1717  -0.0284  -0.0151   0.1636   0.2259  -0.1071
 519 C_w :2pz   -0.0042   0.0039  -0.0016  -0.0003   0.0080   0.0147  -0.0095
 521 C_w :3d1-  -0.0058  -0.0016  -0.0004   0.0102   0.0126   0.0051   0.0079
 536 C_x :2pz   -0.2042   0.0785  -0.0203   0.1129   0.2198   0.1429   0.0561
 542 C_x :2pz   -0.0028   0.0003  -0.0010   0.0062   0.0119   0.0100   0.0041
 544 C_x :3d1-   0.0068  -0.0107   0.0014   0.0068  -0.0050  -0.0151   0.0118
 559 N_a :2pz    0.1429   0.1658  -0.0226   0.1820  -0.1918   0.1979   0.2000
 562 N_a :2pz    0.0113   0.0138  -0.0019   0.0161  -0.0183   0.0205   0.0225
 565 N_a :2pz    0.0156   0.0200  -0.0028   0.0246  -0.0294   0.0349   0.0416
 582 N_b :2pz   -0.0224   0.0214   0.0046  -0.0165  -0.0102  -0.0021  -0.0069
 588 N_b :2pz   -0.0115   0.0117  -0.0015  -0.0112  -0.0097  -0.0076   0.0055
 590 N_b :3d1-   0.0055  -0.0106  -0.0397   0.0051   0.0063   0.0068  -0.0068
 592 N_b :3d1+  -0.0037   0.0002  -0.0402  -0.0070  -0.0069  -0.0070   0.0069
 605 O_a :2pz   -0.0679   0.1440   0.6287  -0.0535  -0.0684  -0.0742   0.0747
 608 O_a :2pz   -0.0041   0.0100   0.0492  -0.0030  -0.0044  -0.0053   0.0059
 611 O_a :2pz   -0.0024   0.0103   0.0641  -0.0019  -0.0048  -0.0073   0.0096
 613 O_a :3d1-  -0.0018   0.0033   0.0133  -0.0013  -0.0014  -0.0014   0.0011
 618 O_a :3d1-  -0.0033   0.0066   0.0288  -0.0023  -0.0028  -0.0029   0.0027
 628 O_b :2pz   -0.0406  -0.0220  -0.6505  -0.0833  -0.0778  -0.0768   0.0736
 631 O_b :2pz   -0.0013  -0.0035  -0.0508  -0.0051  -0.0053  -0.0059   0.0064
 634 O_b :2pz    0.0011  -0.0073  -0.0656  -0.0040  -0.0047  -0.0064   0.0082
 638 O_b :3d1+   0.0011   0.0002   0.0134   0.0018   0.0016   0.0013  -0.0011
 643 O_b :3d1+   0.0014   0.0015   0.0286   0.0031   0.0028   0.0027  -0.0026

    Orbital        98       99      100      101      102      103      104
   2 C_a :1s     0.0000  -0.0000   0.0000  -0.0000   0.0026  -0.0372   0.0134
   3 C_a :1s     0.0000   0.0000   0.0000   0.0000   0.0093   0.2247  -0.1504
   4 C_a :1s     0.0000  -0.0000   0.0000   0.0000  -0.4058  12.2954  -5.5155
   5 C_a :2px   -0.0000   0.0000  -0.0000   0.0000  -0.0028   0.0257  -0.0056
   7 C_a :2pz    0.0308   0.2192  -0.1885   0.1567   0.0000   0.0000   0.0000
   8 C_a :2px    0.0000   0.0000   0.0000   0.0000   0.0859  -0.0123  -0.0851
   9 C_a :2py   -0.0000  -0.0000   0.0000  -0.0000  -0.0161  -0.1154   0.0739
  10 C_a :2pz   -0.0044   0.0140  -0.0121   0.0166   0.0000   0.0000   0.0000
  11 C_a :2px   -0.0000  -0.0000  -0.0000   0.0000   0.4996   1.7776  -1.2951
  12 C_a :2py    0.0000   0.0000   0.0000  -0.0000  -2.1817   1.8851   1.7127
  13 C_a :2pz   -0.0005   0.0507  -0.0485   0.1192   0.0000   0.0000   0.0000
  15 C_a :3d1-  -0.0119   0.0173  -0.0078  -0.0199   0.0000   0.0000   0.0000
  19 C_a :3d2-   0.0000   0.0000   0.0000   0.0000   0.0196   0.0051  -0.0275
  20 C_a :3d1-  -0.0075   0.0114  -0.0054  -0.0221  -0.0000   0.0000  -0.0000
  21 C_a :3d0    0.0000   0.0000   0.0000  -0.0000   0.0078  -0.0378   0.0151
  23 C_a :3d2+   0.0000   0.0000   0.0000   0.0000   0.0528   0.0653  -0.0957
  25 C_b :1s     0.0000   0.0000   0.0000  -0.0000   0.0027   0.0418  -0.0192
  26 C_b :1s     0.0000  -0.0000  -0.0000   0.0000   0.0069  -0.1637   0.0222
  27 C_b :1s    -0.0000  -0.0000  -0.0000  -0.0000  -0.5198 -12.1416   5.1437
  28 C_b :2px   -0.0000  -0.0000  -0.0000  -0.0000   0.0023   0.0367  -0.0188
  30 C_b :2pz   -0.1234   0.2226  -0.1031  -0.2354  -0.0000  -0.0000  -0.0000
  31 C_b :2px   -0.0000  -0.0000  -0.0000  -0.0000  -0.0467  -0.0766   0.0821
  32 C_b :2py   -0.0000  -0.0000   0.0000  -0.0000  -0.0656  -0.1373   0.1163
  33 C_b :2pz    0.0008   0.0122  -0.0098  -0.0281  -0.0000  -0.0000   0.0000
  34 C_b :2px   -0.0000  -0.0000   0.0000  -0.0000   0.9927   1.9864  -1.3212
  35 C_b :2py   -0.0000   0.0000  -0.0000  -0.0000  -2.6023   1.6827   0.8973
  36 C_b :2pz   -0.0110   0.0408  -0.0355  -0.1789  -0.0000  -0.0000  -0.0000
  38 C_b :3d1-  -0.0062  -0.0164   0.0167  -0.0122  -0.0000  -0.0000  -0.0000
  42 C_b :3d2-   0.0000   0.0000   0.0000   0.0000   0.0445   0.0388  -0.0661
  43 C_b :3d1-  -0.0050  -0.0119   0.0132  -0.0145   0.0000   0.0000   0.0000
  44 C_b :3d0    0.0000  -0.0000   0.0000   0.0000   0.0081   0.0367  -0.0211
  46 C_b :3d2+   0.0000  -0.0000   0.0000   0.0000   0.0410   0.0071  -0.0514
  48 C_c :1s    -0.0000  -0.0000  -0.0000   0.0000   0.0029  -0.0337   0.0068
  49 C_c :1s     0.0000   0.0000   0.0000   0.0000  -0.0145   0.2107  -0.0896
  50 C_c :1s     0.0000   0.0000   0.0000   0.0000  -0.3807  11.2542  -3.0915
  51 C_c :2px    0.0000  -0.0000  -0.0000  -0.0000  -0.0024   0.0224  -0.0012
  53 C_c :2pz   -0.1648  -0.1547   0.2182  -0.1309   0.0000   0.0000   0.0000
  54 C_c :2px    0.0000   0.0000  -0.0000   0.0000   0.0809   0.0076  -0.0816
  55 C_c :2py    0.0000  -0.0000   0.0000   0.0000  -0.0717  -0.1299   0.0943
  56 C_c :2pz   -0.0018  -0.0118   0.0143  -0.0131   0.0000   0.0000   0.0000
  57 C_c :2px    0.0000  -0.0000   0.0000  -0.0000   0.8033   1.7524  -0.8510
  58 C_c :2py    0.0000   0.0000   0.0000   0.0000  -2.9191   1.1674   1.7911
  59 C_c :2pz   -0.0190  -0.0398   0.0571  -0.0926   0.0000   0.0000   0.0000
  61 C_c :3d1-   0.0026  -0.0178   0.0106   0.0186   0.0000   0.0000   0.0000
  66 C_c :3d1-   0.0020  -0.0117   0.0074   0.0205  -0.0000  -0.0000  -0.0000
  67 C_c :3d0    0.0000   0.0000  -0.0000  -0.0000   0.0092  -0.0344   0.0096
  69 C_c :3d2+   0.0000   0.0000  -0.0000   0.0000   0.0558   0.0763  -0.0837
  71 C_d :1s     0.0000   0.0000   0.0000  -0.0000   0.0013   0.0370  -0.0079
  72 C_d :1s    -0.0000  -0.0000  -0.0000   0.0000   0.0306  -0.1386  -0.0187
  73 C_d :1s    -0.0000   0.0000  -0.0000  -0.0000  -0.1813 -10.8537   1.9662
  74 C_d :2px   -0.0000  -0.0000  -0.0000  -0.0000   0.0017   0.0323  -0.0088
  76 C_d :2pz   -0.0119  -0.2186   0.1370   0.2156  -0.0000  -0.0000  -0.0000
  77 C_d :2px   -0.0000   0.0000  -0.0000  -0.0000  -0.0609  -0.0649   0.0558
  78 C_d :2py    0.0000  -0.0000   0.0000   0.0000  -0.1038  -0.1569   0.1200
  79 C_d :2pz   -0.0063  -0.0100   0.0121   0.0258  -0.0000  -0.0000  -0.0000
  80 C_d :2px    0.0000   0.0000   0.0000   0.0000   0.7086   1.7971  -0.9145
  81 C_d :2py   -0.0000   0.0000  -0.0000  -0.0000  -2.9000   1.7286   2.1877
  82 C_d :2pz   -0.0059  -0.0349   0.0433   0.1668  -0.0000  -0.0000  -0.0000
  84 C_d :3d1-   0.0152   0.0102  -0.0190   0.0099  -0.0000  -0.0000  -0.0000
  88 C_d :3d2-   0.0000   0.0000   0.0000  -0.0000   0.0410   0.0513  -0.0558
  89 C_d :3d1-   0.0106   0.0072  -0.0150   0.0118   0.0000   0.0000   0.0000
  90 C_d :3d0   -0.0000  -0.0000   0.0000   0.0000   0.0052   0.0332  -0.0090
  92 C_d :3d2+   0.0000  -0.0000   0.0000   0.0000   0.0134   0.0084  -0.0282
  94 C_e :1s    -0.0000  -0.0000   0.0000  -0.0000   0.0028  -0.0287  -0.0015
  95 C_e :1s     0.0000   0.0000  -0.0000   0.0000  -0.0264   0.1856  -0.0269
  96 C_e :1s     0.0000   0.0000   0.0000   0.0000  -0.4574   9.6345  -0.1854
  97 C_e :2px    0.0000   0.0000  -0.0000  -0.0000  -0.0019   0.0185   0.0035
  99 C_e :2pz    0.2314   0.0610  -0.2416   0.1040   0.0000   0.0000   0.0000
 100 C_e :2px   -0.0000   0.0000  -0.0000  -0.0000   0.0741   0.0215  -0.0648
 101 C_e :2py    0.0000  -0.0000   0.0000   0.0000  -0.0781  -0.1508   0.0828
 102 C_e :2pz    0.0071   0.0077  -0.0161   0.0098   0.0000   0.0000   0.0000
 103 C_e :2px   -0.0000  -0.0000  -0.0000   0.0000   0.7595   1.6734  -0.2907
 104 C_e :2py    0.0000   0.0000   0.0000   0.0000  -3.2955   0.3359   1.5022
 105 C_e :2pz    0.0301   0.0219  -0.0642   0.0667   0.0000   0.0000   0.0000
 107 C_e :3d1-   0.0080   0.0153  -0.0133  -0.0167   0.0000  -0.0000   0.0000
 111 C_e :3d2-  -0.0000  -0.0000   0.0000   0.0000   0.0008  -0.0069   0.0148
 112 C_e :3d1-   0.0043   0.0102  -0.0094  -0.0181  -0.0000   0.0000  -0.0000
 113 C_e :3d0    0.0000   0.0000  -0.0000  -0.0000   0.0079  -0.0300   0.0007
 115 C_e :3d2+   0.0000   0.0000  -0.0000  -0.0000   0.0469   0.0751  -0.0568
 117 C_f :1s     0.0000   0.0000  -0.0000   0.0000   0.0022   0.0301   0.0029
 118 C_f :1s    -0.0000   0.0000  -0.0000  -0.0000  -0.0352  -0.0993  -0.0490
 119 C_f :1s     0.0000   0.0000  -0.0000   0.0000  -0.3558  -8.8772  -1.1120
 120 C_f :2px    0.0000  -0.0000   0.0000  -0.0000   0.0003   0.0268   0.0024
 122 C_f :2pz    0.1460   0.1762  -0.1697  -0.1908  -0.0000  -0.0000   0.0000
 123 C_f :2px    0.0000   0.0000   0.0000  -0.0000   0.0163  -0.0619  -0.0234
 124 C_f :2py    0.0000  -0.0000   0.0000   0.0000  -0.1487  -0.1620   0.1056
 125 C_f :2pz    0.0091   0.0058  -0.0139  -0.0230  -0.0000   0.0000  -0.0000
 126 C_f :2px    0.0000  -0.0000   0.0000  -0.0000   1.1676   1.3008  -0.7190
 127 C_f :2py   -0.0000   0.0000  -0.0000   0.0000  -3.1812   1.6272   2.8531
 128 C_f :2pz    0.0204   0.0229  -0.0502  -0.1481  -0.0000  -0.0000   0.0000
 130 C_f :3d1-  -0.0177  -0.0020   0.0207  -0.0077  -0.0000  -0.0000  -0.0000
 134 C_f :3d2-  -0.0000   0.0000  -0.0000  -0.0000   0.0654   0.0517  -0.0461
 135 C_f :3d1-  -0.0118  -0.0011   0.0162  -0.0091   0.0000   0.0000   0.0000
 136 C_f :3d0    0.0000  -0.0000   0.0000  -0.0000   0.0072   0.0265  -0.0007
 138 C_f :3d2+  -0.0000  -0.0000  -0.0000  -0.0000   0.0212  -0.0009  -0.0116
 140 C_g :1s     0.0000  -0.0000   0.0000   0.0000   0.0024  -0.0237  -0.0098
 141 C_g :1s    -0.0000   0.0000  -0.0000  -0.0000  -0.0720   0.1593   0.0271
 142 C_g :1s    -0.0000  -0.0000   0.0000  -0.0000  -0.4505   7.9929   3.6365
 143 C_g :2px   -0.0000   0.0000  -0.0000  -0.0000  -0.0014   0.0149   0.0084
 145 C_g :2pz   -0.1970   0.0467   0.2553  -0.0778   0.0000   0.0000   0.0000
 146 C_g :2px   -0.0000   0.0000  -0.0000  -0.0000   0.0953   0.0209  -0.0674
 147 C_g :2py    0.0000  -0.0000  -0.0000   0.0000  -0.2083  -0.1392   0.0828
 148 C_g :2pz   -0.0095  -0.0023   0.0174  -0.0065   0.0000   0.0000   0.0000
 149 C_g :2px   -0.0000  -0.0000   0.0000  -0.0000   1.0336   1.3870   0.0293
 150 C_g :2py    0.0000   0.0000   0.0000  -0.0000  -3.8997   0.0127   2.0433
 151 C_g :2pz   -0.0279  -0.0001   0.0694  -0.0439   0.0000   0.0000   0.0000
 153 C_g :3d1-  -0.0153  -0.0100   0.0157   0.0146   0.0000   0.0000  -0.0000
 157 C_g :3d2-  -0.0000  -0.0000  -0.0000  -0.0000  -0.0452  -0.0094   0.0411
 158 C_g :3d1-  -0.0088  -0.0067   0.0111   0.0156  -0.0000  -0.0000  -0.0000
 159 C_g :3d0   -0.0000   0.0000  -0.0000   0.0000   0.0049  -0.0260  -0.0106
 161 C_g :3d2+  -0.0000   0.0000  -0.0000  -0.0000   0.0618   0.0645  -0.0134
 163 C_h :1s    -0.0000   0.0000   0.0000   0.0000   0.0002   0.0252   0.0179
 164 C_h :1s     0.0000   0.0000  -0.0000  -0.0000   0.0329  -0.0958  -0.1594
 165 C_h :1s     0.0000   0.0000   0.0000   0.0000   0.4696  -7.5534  -5.9847
 166 C_h :2px    0.0000  -0.0000   0.0000   0.0000  -0.0014   0.0215   0.0128
 168 C_h :2pz   -0.2191  -0.0991   0.1980   0.1635  -0.0000   0.0000  -0.0000
 169 C_h :2px    0.0000  -0.0000   0.0000   0.0000  -0.0020  -0.0277  -0.0076
 170 C_h :2py   -0.0000  -0.0000  -0.0000  -0.0000  -0.2400  -0.1561   0.0300
 171 C_h :2pz   -0.0078  -0.0005   0.0150   0.0198  -0.0000  -0.0000   0.0000
 172 C_h :2px    0.0000  -0.0000  -0.0000   0.0000   0.4924   1.1835   0.4880
 173 C_h :2py   -0.0000   0.0000   0.0000  -0.0000  -3.5866   1.3223   2.9338
 174 C_h :2pz   -0.0258  -0.0065   0.0551   0.1264  -0.0000   0.0000  -0.0000
 176 C_h :3d1-   0.0124  -0.0067  -0.0215   0.0056  -0.0000   0.0000  -0.0000
 180 C_h :3d2-  -0.0000  -0.0000   0.0000  -0.0000   0.0806   0.0543   0.0023
 181 C_h :3d1-   0.0078  -0.0052  -0.0168   0.0067   0.0000  -0.0000   0.0000
 182 C_h :3d0   -0.0000  -0.0000  -0.0000  -0.0000   0.0068   0.0251   0.0224
 184 C_h :3d2+  -0.0000   0.0000  -0.0000  -0.0000  -0.0260  -0.0019   0.0095
 186 C_i :1s     0.0000  -0.0000   0.0000  -0.0000   0.0023  -0.0201  -0.0198
 187 C_i :1s    -0.0000   0.0000  -0.0000   0.0000   0.0050   0.1409   0.1177
 188 C_i :1s    -0.0000  -0.0000  -0.0000   0.0000  -1.2077   6.5982   6.8553
 189 C_i :2px    0.0000   0.0000  -0.0000   0.0000  -0.0001   0.0120   0.0128
 191 C_i :2pz    0.0708  -0.1474  -0.2562   0.0534   0.0000   0.0000  -0.0000
 192 C_i :2px    0.0000  -0.0000  -0.0000   0.0000   0.0834   0.0290  -0.0040
 193 C_i :2py   -0.0000   0.0000  -0.0000  -0.0000  -0.1991  -0.1490  -0.0268
 194 C_i :2pz    0.0077  -0.0037  -0.0179   0.0036   0.0000   0.0000   0.0000
 195 C_i :2px    0.0000  -0.0000   0.0000   0.0000   0.6335   1.1618   0.6832
 196 C_i :2py    0.0000   0.0000  -0.0000   0.0000  -3.6012  -0.1656   2.1109
 197 C_i :2pz    0.0130  -0.0217  -0.0719   0.0246   0.0000   0.0000  -0.0000
 199 C_i :3d1-   0.0159   0.0026  -0.0175  -0.0123  -0.0000  -0.0000   0.0000
 203 C_i :3d2-  -0.0000  -0.0000  -0.0000   0.0000  -0.0552  -0.0210   0.0116
 204 C_i :3d1-   0.0092   0.0017  -0.0125  -0.0129   0.0000   0.0000  -0.0000
 205 C_i :3d0   -0.0000   0.0000  -0.0000   0.0000   0.0116  -0.0244  -0.0251
 207 C_i :3d2+  -0.0000  -0.0000  -0.0000  -0.0000   0.0408   0.0511   0.0136
 209 C_j :1s    -0.0000   0.0000   0.0000  -0.0000  -0.0028   0.0202   0.0274
 210 C_j :1s     0.0000   0.0000  -0.0000   0.0000   0.0463  -0.0615  -0.1264
[...]

       No.  Residual tot.,    conf., and orb.    Bnorm      Frequency 
      ----------------------------------------------------------------
         1    1.83765D-01  0.00D+00  1.84D-01  1.10D+02    0.00000D+00
         2    1.90102D-01  0.00D+00  1.90D-01  1.14D+02    1.60000D-02
         3    2.11777D-01  0.00D+00  2.12D-01  1.28D+02    3.20000D-02

 ** RSPCTL MICROITERATION NUMBER    7

       No.  Residual tot.,    conf., and orb.    Bnorm      Frequency 
      ----------------------------------------------------------------
         1    4.95604D-02  0.00D+00  4.96D-02  1.10D+02    0.00000D+00
         2    5.16727D-02  0.00D+00  5.17D-02  1.14D+02    1.60000D-02
         3    5.90745D-02  0.00D+00  5.91D-02  1.28D+02    3.20000D-02

 *** THE REQUESTED    3 SOLUTION VECTORS CONVERGED

 Convergence of RSP solution vectors, threshold = 1.00D-03
 ---------------------------------------------------------------
 (dimension of paired reduced space:   42)
 RSP solution vector no.    1; norm of residual   4.52D-04
 RSP solution vector no.    2; norm of residual   4.54D-04
 RSP solution vector no.    3; norm of residual   4.62D-04

 *** RSPCTL MICROITERATIONS CONVERGED

@ QRLRVE: SINGLET SOLUTION FOR SYMMETRY    1  ( A  )    LABEL   YDIPLEN     FREQUENCY   0.000000D+00

@ QRLRVE:  << XDIPLEN  ; YDIPLEN  >> (   0.00000):    -343.245781349    

@ QRLRVE:  << YDIPLEN  ; YDIPLEN  >> (   0.00000):     2219.95890398    

@ QRLRVE:  << ZDIPLEN  ; YDIPLEN  >> (   0.00000):    9.904488906800E-14

@ QRLRVE: SINGLET SOLUTION FOR SYMMETRY    1  ( A  )    LABEL   YDIPLEN     FREQUENCY   0.160000D-01

@ QRLRVE:  << XDIPLEN  ; YDIPLEN  >> (   0.01600):    -352.887947896    

@ QRLRVE:  << YDIPLEN  ; YDIPLEN  >> (   0.01600):     2275.05205460    

@ QRLRVE:  << ZDIPLEN  ; YDIPLEN  >> (   0.01600):    1.022508617407E-13

@ QRLRVE: SINGLET SOLUTION FOR SYMMETRY    1  ( A  )    LABEL   YDIPLEN     FREQUENCY   0.320000D-01

@ QRLRVE:  << XDIPLEN  ; YDIPLEN  >> (   0.03200):    -385.396116484    

@ QRLRVE:  << YDIPLEN  ; YDIPLEN  >> (   0.03200):     2460.62195892    

@ QRLRVE:  << ZDIPLEN  ; YDIPLEN  >> (   0.03200):    1.130333171831E-13


 QRLRVE -- linear response calculation for symmetry  1  ( A  )
 QRLRVE -- operator label : ZDIPLEN 
 QRLRVE -- operator spin  :   0
 QRLRVE -- frequencies :  0.000000  0.016000  0.032000



 ---  SOLVING SETS OF LINEAR EQUATIONS FOR LINEAR RESPONSE PROPERTIES ---

 Operator symmetry = 1  ( A  ); triplet =   F


 ** RSPCTL MICROITERATION NUMBER    1

       No.  Residual tot.,    conf., and orb.    Bnorm      Frequency 
      ----------------------------------------------------------------
         1    4.05055D+00  0.00D+00  4.05D+00  1.09D+01    0.00000D+00
         2    4.05305D+00  0.00D+00  4.05D+00  1.09D+01    1.60000D-02
         3    4.06061D+00  0.00D+00  4.06D+00  1.10D+01    3.20000D-02

 ** RSPCTL MICROITERATION NUMBER    2

       No.  Residual tot.,    conf., and orb.    Bnorm      Frequency 
      ----------------------------------------------------------------
         1    8.99510D-01  0.00D+00  9.00D-01  1.13D+01    0.00000D+00
         2    9.01261D-01  0.00D+00  9.01D-01  1.14D+01    1.60000D-02
         3    9.06556D-01  0.00D+00  9.07D-01  1.14D+01    3.20000D-02

 ** RSPCTL MICROITERATION NUMBER    3

       No.  Residual tot.,    conf., and orb.    Bnorm      Frequency 
      ----------------------------------------------------------------
         1    1.83418D-01  0.00D+00  1.83D-01  1.14D+01    0.00000D+00
         2    1.84184D-01  0.00D+00  1.84D-01  1.14D+01    1.60000D-02
         3    1.86510D-01  0.00D+00  1.87D-01  1.15D+01    3.20000D-02

 ** RSPCTL MICROITERATION NUMBER    4

       No.  Residual tot.,    conf., and orb.    Bnorm      Frequency 
      ----------------------------------------------------------------
         1    5.55025D-02  0.00D+00  5.55D-02  1.14D+01    0.00000D+00
         2    5.60888D-02  0.00D+00  5.61D-02  1.14D+01    1.60000D-02
         3    5.79025D-02  0.00D+00  5.79D-02  1.15D+01    3.20000D-02

 ** RSPCTL MICROITERATION NUMBER    5

       No.  Residual tot.,    conf., and orb.    Bnorm      Frequency 
      ----------------------------------------------------------------
         1    1.89873D-02  0.00D+00  1.90D-02  1.14D+01    0.00000D+00
         2    1.93310D-02  0.00D+00  1.93D-02  1.14D+01    1.60000D-02
         3    2.04016D-02  0.00D+00  2.04D-02  1.15D+01    3.20000D-02

 ** RSPCTL MICROITERATION NUMBER    6

       No.  Residual tot.,    conf., and orb.    Bnorm      Frequency 
      ----------------------------------------------------------------
         1    6.69335D-03  0.00D+00  6.69D-03  1.14D+01    0.00000D+00
         2    6.87333D-03  0.00D+00  6.87D-03  1.14D+01    1.60000D-02
         3    7.43874D-03  0.00D+00  7.44D-03  1.15D+01    3.20000D-02

 *** THE REQUESTED    3 SOLUTION VECTORS CONVERGED

 Convergence of RSP solution vectors, threshold = 1.00D-03
 ---------------------------------------------------------------
 (dimension of paired reduced space:   36)
 RSP solution vector no.    1; norm of residual   5.88D-04
 RSP solution vector no.    2; norm of residual   6.03D-04
 RSP solution vector no.    3; norm of residual   6.48D-04

 *** RSPCTL MICROITERATIONS CONVERGED

@ QRLRVE: SINGLET SOLUTION FOR SYMMETRY    1  ( A  )    LABEL   ZDIPLEN     FREQUENCY   0.000000D+00

@ QRLRVE:  << XDIPLEN  ; ZDIPLEN  >> (   0.00000):   -1.202252205833E-14

@ QRLRVE:  << YDIPLEN  ; ZDIPLEN  >> (   0.00000):    4.515426952308E-14

@ QRLRVE:  << ZDIPLEN  ; ZDIPLEN  >> (   0.00000):     188.566735251    

@ QRLRVE: SINGLET SOLUTION FOR SYMMETRY    1  ( A  )    LABEL   ZDIPLEN     FREQUENCY   0.160000D-01

@ QRLRVE:  << XDIPLEN  ; ZDIPLEN  >> (   0.01600):   -1.233054518018E-14

@ QRLRVE:  << YDIPLEN  ; ZDIPLEN  >> (   0.01600):    4.644337198597E-14

@ QRLRVE:  << ZDIPLEN  ; ZDIPLEN  >> (   0.01600):     188.734327265    

@ QRLRVE: SINGLET SOLUTION FOR SYMMETRY    1  ( A  )    LABEL   ZDIPLEN     FREQUENCY   0.320000D-01

@ QRLRVE:  << XDIPLEN  ; ZDIPLEN  >> (   0.03200):   -1.340518297515E-14

@ QRLRVE:  << YDIPLEN  ; ZDIPLEN  >> (   0.03200):    5.102622201297E-14

@ QRLRVE:  << ZDIPLEN  ; ZDIPLEN  >> (   0.03200):     189.240287337    
 
 ======================================================================
 ---  L I N E A R   R E S P O N S E   F U N C T I O N S --- 
 ======================================================================

 The -<<A;B>>(omega_b) functions from vectors generated
 in a *QUADRA calculation of <<A;B,C>>(omega_b,omega_c)

 Note: the accuracy of off-diagonal elements will be linear
 in the convergence threshold THCLR =  1.00D-03


 Perturbation symmetry.     KSYMOP:           1
 Perturbation spin symmetry.TRPLET:           F
 Orbital variables.         KZWOPT:       77600
 Configuration variables.   KZCONF:           0
 Total number of variables. KZVAR :       77600

@ Singlet linear response function in a.u.

@ A operator, symmetry, frequency:   XDIPLEN    1 -0.000000
@ B operator, symmetry, frequency:   XDIPLEN    1  0.000000

@ Value of linear response -<<A;B>>(omega):     317.015850476162

@ Singlet linear response function in a.u.

@ A operator, symmetry, frequency:   YDIPLEN    1 -0.000000
@ B operator, symmetry, frequency:   XDIPLEN    1  0.000000

@ Value of linear response -<<A;B>>(omega):    -343.300958316696

@ Singlet linear response function in a.u.

@ A operator, symmetry, frequency:   ZDIPLEN    1 -0.000000
@ B operator, symmetry, frequency:   XDIPLEN    1  0.000000

@ Value of linear response -<<A;B>>(omega):      -0.000000000000

@ Singlet linear response function in a.u.

@ A operator, symmetry, frequency:   XDIPLEN    1 -0.016000
@ B operator, symmetry, frequency:   XDIPLEN    1  0.016000

@ Value of linear response -<<A;B>>(omega):     318.980685636449

@ Singlet linear response function in a.u.

@ A operator, symmetry, frequency:   YDIPLEN    1 -0.016000
@ B operator, symmetry, frequency:   XDIPLEN    1  0.016000

@ Value of linear response -<<A;B>>(omega):    -352.946291842078

@ Singlet linear response function in a.u.

@ A operator, symmetry, frequency:   ZDIPLEN    1 -0.016000
@ B operator, symmetry, frequency:   XDIPLEN    1  0.016000

@ Value of linear response -<<A;B>>(omega):      -0.000000000000

@ Singlet linear response function in a.u.

@ A operator, symmetry, frequency:   XDIPLEN    1 -0.000000
@ B operator, symmetry, frequency:   YDIPLEN    1  0.000000

@ Value of linear response -<<A;B>>(omega):    -343.245781349099

@ Singlet linear response function in a.u.

@ A operator, symmetry, frequency:   YDIPLEN    1 -0.000000
@ B operator, symmetry, frequency:   YDIPLEN    1  0.000000

@ Value of linear response -<<A;B>>(omega):    2219.958903981787

@ Singlet linear response function in a.u.

@ A operator, symmetry, frequency:   ZDIPLEN    1 -0.000000
@ B operator, symmetry, frequency:   YDIPLEN    1  0.000000

@ Value of linear response -<<A;B>>(omega):       0.000000000000

@ Singlet linear response function in a.u.

@ A operator, symmetry, frequency:   XDIPLEN    1 -0.016000
@ B operator, symmetry, frequency:   YDIPLEN    1  0.016000

@ Value of linear response -<<A;B>>(omega):    -352.887947896186

@ Singlet linear response function in a.u.

@ A operator, symmetry, frequency:   YDIPLEN    1 -0.016000
@ B operator, symmetry, frequency:   YDIPLEN    1  0.016000

@ Value of linear response -<<A;B>>(omega):    2275.052054603550

@ Singlet linear response function in a.u.

@ A operator, symmetry, frequency:   ZDIPLEN    1 -0.016000
@ B operator, symmetry, frequency:   YDIPLEN    1  0.016000

@ Value of linear response -<<A;B>>(omega):       0.000000000000

@ Singlet linear response function in a.u.

@ A operator, symmetry, frequency:   XDIPLEN    1 -0.000000
@ B operator, symmetry, frequency:   ZDIPLEN    1  0.000000

@ Value of linear response -<<A;B>>(omega):      -0.000000000000

@ Singlet linear response function in a.u.

@ A operator, symmetry, frequency:   YDIPLEN    1 -0.000000
@ B operator, symmetry, frequency:   ZDIPLEN    1  0.000000

@ Value of linear response -<<A;B>>(omega):       0.000000000000

@ Singlet linear response function in a.u.

@ A operator, symmetry, frequency:   ZDIPLEN    1 -0.000000
@ B operator, symmetry, frequency:   ZDIPLEN    1  0.000000

@ Value of linear response -<<A;B>>(omega):     188.566735251041

@ Singlet linear response function in a.u.

@ A operator, symmetry, frequency:   XDIPLEN    1 -0.016000
@ B operator, symmetry, frequency:   ZDIPLEN    1  0.016000

@ Value of linear response -<<A;B>>(omega):      -0.000000000000

@ Singlet linear response function in a.u.

@ A operator, symmetry, frequency:   YDIPLEN    1 -0.016000
@ B operator, symmetry, frequency:   ZDIPLEN    1  0.016000

@ Value of linear response -<<A;B>>(omega):       0.000000000000

@ Singlet linear response function in a.u.

@ A operator, symmetry, frequency:   ZDIPLEN    1 -0.016000
@ B operator, symmetry, frequency:   ZDIPLEN    1  0.016000

@ Value of linear response -<<A;B>>(omega):     188.734327264727


  Results from quadratic response calculation
 --------------------------------------------

@ B-freq = 0.000000  C-freq = 0.000000     beta(X;X,X) =  -2021.22938533
@ B-freq = 0.000000  C-freq = 0.000000     beta(Y;X,X) =   7793.28709751
@ B-freq = 0.000000  C-freq = 0.000000     beta(Z;X,X) =      0.00000000
@ B-freq = 0.016000  C-freq = 0.000000     beta(X;X,X) =  -2110.08962943
@ B-freq = 0.016000  C-freq = 0.000000     beta(Y;X,X) =   8187.09465357
@ B-freq = 0.016000  C-freq = 0.000000     beta(Z;X,X) =      0.00000000
@ B-freq = 0.000000  C-freq = 0.000000     beta(X;Y,X) = beta(Y,X,X)
@ B-freq = 0.000000  C-freq = 0.000000     beta(X;Y,X) =   7793.28719559
@ B-freq = 0.000000  C-freq = 0.000000     beta(Y;Y,X) = -27851.97926458
@ B-freq = 0.000000  C-freq = 0.000000     beta(Z;Y,X) =     -0.00000000
@ B-freq = 0.016000  C-freq = 0.000000     beta(X;Y,X) =   8187.09475594
@ B-freq = 0.016000  C-freq = 0.000000     beta(Y;Y,X) = -29540.96891957
@ B-freq = 0.016000  C-freq = 0.000000     beta(Z;Y,X) =     -0.00000000
@ B-freq = 0.000000  C-freq = 0.000000     beta(X;Z,X) = beta(Z,X,X)
@ B-freq = 0.000000  C-freq = 0.000000     beta(Y;Z,X) = beta(Z,Y,X)
@ B-freq = 0.000000  C-freq = 0.000000     beta(X;Z,X) =      0.00000000
@ B-freq = 0.000000  C-freq = 0.000000     beta(Y;Z,X) =     -0.00000000
@ B-freq = 0.000000  C-freq = 0.000000     beta(Z;Z,X) =     13.28194522
@ B-freq = 0.016000  C-freq = 0.000000     beta(X;Z,X) =      0.00000000
@ B-freq = 0.016000  C-freq = 0.000000     beta(Y;Z,X) =     -0.00000000
@ B-freq = 0.016000  C-freq = 0.000000     beta(Z;Z,X) =     13.39165341
@ B-freq = 0.000000  C-freq = 0.016000     beta(X;X,X) = beta(X,X,X)
@ B-freq = 0.000000  C-freq = 0.016000     beta(Y;X,X) = beta(Y,X,X)
@ B-freq = 0.000000  C-freq = 0.016000     beta(Z;X,X) = beta(Z,X,X)
@ B-freq = 0.016000  C-freq = 0.016000     beta(X;X,X) =  -2309.63540165
@ B-freq = 0.016000  C-freq = 0.016000     beta(Y;X,X) =   9165.83438304
@ B-freq = 0.016000  C-freq = 0.016000     beta(Z;X,X) =      0.00000000
@ B-freq = 0.000000  C-freq = 0.016000     beta(X;Y,X) =   8111.73604223
@ B-freq = 0.000000  C-freq = 0.016000     beta(Y;Y,X) = -29213.72981203
@ B-freq = 0.000000  C-freq = 0.016000     beta(Z;Y,X) =     -0.00000000
@ B-freq = 0.016000  C-freq = 0.016000     beta(X;Y,X) =   8908.33866803
@ B-freq = 0.016000  C-freq = 0.016000     beta(Y;Y,X) = -33034.43208152
@ B-freq = 0.016000  C-freq = 0.016000     beta(Z;Y,X) =     -0.00000000
@ B-freq = 0.000000  C-freq = 0.016000     beta(X;Z,X) =      0.00000000
@ B-freq = 0.000000  C-freq = 0.016000     beta(Y;Z,X) =     -0.00000000
@ B-freq = 0.000000  C-freq = 0.016000     beta(Z;Z,X) =     13.33118877
@ B-freq = 0.016000  C-freq = 0.016000     beta(X;Z,X) =      0.00000000
@ B-freq = 0.016000  C-freq = 0.016000     beta(Y;Z,X) =     -0.00000000
@ B-freq = 0.016000  C-freq = 0.016000     beta(Z;Z,X) =     13.55787376
@ B-freq = 0.000000  C-freq = 0.000000     beta(X;X,Y) = beta(Y,X,X)
@ B-freq = 0.000000  C-freq = 0.000000     beta(Y;X,Y) = beta(Y,Y,X)
@ B-freq = 0.000000  C-freq = 0.000000     beta(Z;X,Y) = beta(Z,Y,X)
@ B-freq = 0.016000  C-freq = 0.000000     beta(X;X,Y) = beta(X,Y,X)
@ B-freq = 0.016000  C-freq = 0.000000     beta(Y;X,Y) = beta(Y,Y,X)
@ B-freq = 0.016000  C-freq = 0.000000     beta(Z;X,Y) = beta(Z,Y,X)
@ B-freq = 0.000000  C-freq = 0.000000     beta(X;Y,Y) = beta(Y,Y,X)
@ B-freq = 0.000000  C-freq = 0.000000     beta(X;Y,Y) = -27851.98049084
@ B-freq = 0.000000  C-freq = 0.000000     beta(Y;Y,Y) =  89480.36038395
@ B-freq = 0.000000  C-freq = 0.000000     beta(Z;Y,Y) =      0.00000000
@ B-freq = 0.016000  C-freq = 0.000000     beta(X;Y,Y) = -29213.73109095
@ B-freq = 0.016000  C-freq = 0.000000     beta(Y;Y,Y) =  94994.76262642
@ B-freq = 0.016000  C-freq = 0.000000     beta(Z;Y,Y) =      0.00000000
@ B-freq = 0.000000  C-freq = 0.000000     beta(X;Z,Y) = beta(Z,Y,X)
@ B-freq = 0.000000  C-freq = 0.000000     beta(Y;Z,Y) = beta(Z,Y,Y)
@ B-freq = 0.000000  C-freq = 0.000000     beta(X;Z,Y) =     -0.00000000
@ B-freq = 0.000000  C-freq = 0.000000     beta(Y;Z,Y) =      0.00000000
@ B-freq = 0.000000  C-freq = 0.000000     beta(Z;Z,Y) =    -33.18090000
@ B-freq = 0.016000  C-freq = 0.000000     beta(X;Z,Y) =     -0.00000000
@ B-freq = 0.016000  C-freq = 0.000000     beta(Y;Z,Y) =      0.00000000
@ B-freq = 0.016000  C-freq = 0.000000     beta(Z;Z,Y) =    -33.73856087
@ B-freq = 0.000000  C-freq = 0.016000     beta(X;X,Y) = beta(X,Y,X)
@ B-freq = 0.000000  C-freq = 0.016000     beta(Y;X,Y) = beta(Y,Y,X)
@ B-freq = 0.000000  C-freq = 0.016000     beta(Z;X,Y) = beta(Z,Y,X)
@ B-freq = 0.016000  C-freq = 0.016000     beta(X;X,Y) = beta(X,Y,X)
@ B-freq = 0.016000  C-freq = 0.016000     beta(Y;X,Y) = beta(Y,Y,X)
@ B-freq = 0.016000  C-freq = 0.016000     beta(Z;X,Y) = beta(Z,Y,X)
@ B-freq = 0.000000  C-freq = 0.016000     beta(X;Y,Y) = beta(X,Y,Y)
@ B-freq = 0.000000  C-freq = 0.016000     beta(Y;Y,Y) = beta(Y,Y,Y)
@ B-freq = 0.000000  C-freq = 0.016000     beta(Z;Y,Y) = beta(Z,Y,Y)
@ B-freq = 0.016000  C-freq = 0.016000     beta(X;Y,Y) = -31919.32762145
@ B-freq = 0.016000  C-freq = 0.016000     beta(Y;Y,Y) = 107615.91743866
@ B-freq = 0.016000  C-freq = 0.016000     beta(Z;Y,Y) =      0.00000000
@ B-freq = 0.000000  C-freq = 0.016000     beta(X;Z,Y) =     -0.00000000
@ B-freq = 0.000000  C-freq = 0.016000     beta(Y;Z,Y) =      0.00000000
@ B-freq = 0.000000  C-freq = 0.016000     beta(Z;Z,Y) =    -33.44429836
@ B-freq = 0.016000  C-freq = 0.016000     beta(X;Z,Y) =     -0.00000000
@ B-freq = 0.016000  C-freq = 0.016000     beta(Y;Z,Y) =      0.00000000
@ B-freq = 0.016000  C-freq = 0.016000     beta(Z;Z,Y) =    -34.60447804
@ B-freq = 0.000000  C-freq = 0.000000     beta(X;X,Z) = beta(Z,X,X)
@ B-freq = 0.000000  C-freq = 0.000000     beta(Y;X,Z) = beta(Z,Y,X)
@ B-freq = 0.000000  C-freq = 0.000000     beta(Z;X,Z) = beta(Z,Z,X)
@ B-freq = 0.016000  C-freq = 0.000000     beta(X;X,Z) = beta(X,Z,X)
@ B-freq = 0.016000  C-freq = 0.000000     beta(Y;X,Z) = beta(Y,Z,X)
@ B-freq = 0.016000  C-freq = 0.000000     beta(Z;X,Z) = beta(Z,Z,X)
@ B-freq = 0.000000  C-freq = 0.000000     beta(X;Y,Z) = beta(Z,Y,X)
@ B-freq = 0.000000  C-freq = 0.000000     beta(Y;Y,Z) = beta(Z,Y,Y)
@ B-freq = 0.000000  C-freq = 0.000000     beta(Z;Y,Z) = beta(Z,Z,Y)
@ B-freq = 0.016000  C-freq = 0.000000     beta(X;Y,Z) = beta(X,Z,Y)
@ B-freq = 0.016000  C-freq = 0.000000     beta(Y;Y,Z) = beta(Y,Z,Y)
@ B-freq = 0.016000  C-freq = 0.000000     beta(Z;Y,Z) = beta(Z,Z,Y)
@ B-freq = 0.000000  C-freq = 0.000000     beta(X;Z,Z) = beta(Z,Z,X)
@ B-freq = 0.000000  C-freq = 0.000000     beta(Y;Z,Z) = beta(Z,Z,Y)
@ B-freq = 0.000000  C-freq = 0.000000     beta(X;Z,Z) =     13.28191271
@ B-freq = 0.000000  C-freq = 0.000000     beta(Y;Z,Z) =    -33.18071577
@ B-freq = 0.000000  C-freq = 0.000000     beta(Z;Z,Z) =      0.00000000
@ B-freq = 0.016000  C-freq = 0.000000     beta(X;Z,Z) =     13.33115514
@ B-freq = 0.016000  C-freq = 0.000000     beta(Y;Z,Z) =    -33.44410760
@ B-freq = 0.016000  C-freq = 0.000000     beta(Z;Z,Z) =      0.00000000
@ B-freq = 0.000000  C-freq = 0.016000     beta(X;X,Z) = beta(X,Z,X)
@ B-freq = 0.000000  C-freq = 0.016000     beta(Y;X,Z) = beta(Y,Z,X)
@ B-freq = 0.000000  C-freq = 0.016000     beta(Z;X,Z) = beta(Z,Z,X)
@ B-freq = 0.016000  C-freq = 0.016000     beta(X;X,Z) = beta(X,Z,X)
@ B-freq = 0.016000  C-freq = 0.016000     beta(Y;X,Z) = beta(Y,Z,X)
@ B-freq = 0.016000  C-freq = 0.016000     beta(Z;X,Z) = beta(Z,Z,X)
@ B-freq = 0.000000  C-freq = 0.016000     beta(X;Y,Z) = beta(X,Z,Y)
@ B-freq = 0.000000  C-freq = 0.016000     beta(Y;Y,Z) = beta(Y,Z,Y)
@ B-freq = 0.000000  C-freq = 0.016000     beta(Z;Y,Z) = beta(Z,Z,Y)
@ B-freq = 0.016000  C-freq = 0.016000     beta(X;Y,Z) = beta(X,Z,Y)
@ B-freq = 0.016000  C-freq = 0.016000     beta(Y;Y,Z) = beta(Y,Z,Y)
@ B-freq = 0.016000  C-freq = 0.016000     beta(Z;Y,Z) = beta(Z,Z,Y)
@ B-freq = 0.000000  C-freq = 0.016000     beta(X;Z,Z) = beta(X,Z,Z)
@ B-freq = 0.000000  C-freq = 0.016000     beta(Y;Z,Z) = beta(Y,Z,Z)
@ B-freq = 0.000000  C-freq = 0.016000     beta(Z;Z,Z) = beta(Z,Z,Z)
@ B-freq = 0.016000  C-freq = 0.016000     beta(X;Z,Z) =     13.36182233
@ B-freq = 0.016000  C-freq = 0.016000     beta(Y;Z,Z) =    -33.63945348
@ B-freq = 0.016000  C-freq = 0.016000     beta(Z;Z,Z) =      0.00000000

  Total CPU  time used in RESPONSE: 10 minutes 28 seconds
  Total wall time used in RESPONSE: 10 minutes 31 seconds


                   .-------------------------------------------.
                   | End of Dynamic Property Section (RESPONS) |
                   `-------------------------------------------'

  Total CPU  time used in DALTON: 14 minutes 11 seconds
  Total wall time used in DALTON: 14 minutes 16 seconds

 
     Date and time (Linux)  : Tue May 27 13:56:11 2025
     Host name              : xm033                                   
