

     ************************************************************************
     *************** Dalton - An Electronic Structure Program ***************
     ************************************************************************

    This is output from DALTON release Dalton2020.0 (2020)
         ( Web site: http://daltonprogram.org )

   ----------------------------------------------------------------------------

    NOTE:
     
    Dalton is an experimental code for the evaluation of molecular
    properties using (MC)SCF, DFT, CI, and CC wave functions.
    The authors accept no responsibility for the performance of
    the code or for the correctness of the results.
     
    The code (in whole or part) is provided under a licence and
    is not to be reproduced for further distribution without
    the written permission of the authors or their representatives.
     
    See the home page "http://daltonprogram.org" for further information.
     
    If results obtained with this code are published,
    the appropriate citations would be both of:
     
       K. Aidas, C. Angeli, K. L. Bak, V. Bakken, R. Bast,
       L. Boman, O. Christiansen, R. Cimiraglia, S. Coriani,
       P. Dahle, E. K. Dalskov, U. Ekstroem,
       T. Enevoldsen, J. J. Eriksen, P. Ettenhuber, B. Fernandez,
       L. Ferrighi, H. Fliegl, L. Frediani, K. Hald, A. Halkier,
       C. Haettig, H. Heiberg, T. Helgaker, A. C. Hennum,
       H. Hettema, E. Hjertenaes, S. Hoest, I.-M. Hoeyvik,
       M. F. Iozzi, B. Jansik, H. J. Aa. Jensen, D. Jonsson,
       P. Joergensen, J. Kauczor, S. Kirpekar,
       T. Kjaergaard, W. Klopper, S. Knecht, R. Kobayashi, H. Koch,
       J. Kongsted, A. Krapp, K. Kristensen, A. Ligabue,
       O. B. Lutnaes, J. I. Melo, K. V. Mikkelsen, R. H. Myhre,
       C. Neiss, C. B. Nielsen, P. Norman, J. Olsen,
       J. M. H. Olsen, A. Osted, M. J. Packer, F. Pawlowski,
       T. B. Pedersen, P. F. Provasi, S. Reine, Z. Rinkevicius,
       T. A. Ruden, K. Ruud, V. Rybkin, P. Salek, C. C. M. Samson,
       A. Sanchez de Meras, T. Saue, S. P. A. Sauer,
       B. Schimmelpfennig, K. Sneskov, A. H. Steindal,
       K. O. Sylvester-Hvid, P. R. Taylor, A. M. Teale,
       E. I. Tellgren, D. P. Tew, A. J. Thorvaldsen, L. Thoegersen,
       O. Vahtras, M. A. Watson, D. J. D. Wilson, M. Ziolkowski
       and H. Agren,
       "The Dalton quantum chemistry program system",
       WIREs Comput. Mol. Sci. 2014, 4:269–284 (doi: 10.1002/wcms.1172)
     
    and
     
       Dalton, a molecular electronic structure program,
       Release Dalton2020.0 (2020), see http://daltonprogram.org
   ----------------------------------------------------------------------------

    Authors in alphabetical order (Major contribution(s) in parenthesis):

  Kestutis Aidas,           Vilnius University,           Lithuania   (QM/MM)
  Celestino Angeli,         University of Ferrara,        Italy       (NEVPT2)
  Keld L. Bak,              UNI-C,                        Denmark     (AOSOPPA, non-adiabatic coupling, magnetic properties)
  Vebjoern Bakken,          University of Oslo,           Norway      (DALTON; geometry optimizer, symmetry detection)
  Radovan Bast,             UiT The Arctic U. of Norway,  Norway      (DALTON installation and execution frameworks)
  Pablo Baudin,             University of Valencia,       Spain       (Cholesky excitation energies)
  Linus Boman,              NTNU,                         Norway      (Cholesky decomposition and subsystems)
  Bruno N. Cabral Tenorio,  Technical Univ. of Denmark,   Denmark     (Lanczos-based CC methods)
  Ove Christiansen,         Aarhus University,            Denmark     (CC module)
  Renzo Cimiraglia,         University of Ferrara,        Italy       (NEVPT2)
  Sonia Coriani,            Technical Univ. of Denmark,   Denmark     (CC and RESPONS modules)
  Janusz Cukras,            University of Warsaw,         Poland      (MChD in RESPONS)
  Paal Dahle,               University of Oslo,           Norway      (Parallelization)
  Erik K. Dalskov,          UNI-C,                        Denmark     (SOPPA)
  Thomas Enevoldsen,        Univ. of Southern Denmark,    Denmark     (SOPPA)
  Janus J. Eriksen,         Aarhus University,            Denmark     (Polarizable embedding, TDA)
  Rasmus Faber,             Technical Univ. of Denmark,   Denmark     (Vib.avg. NMR w. SOPPA, parallel AO-SOPPA, CVS-CC and EOMCC)
  Tobias Fahleson,          KTH Stockholm,                Sweden      (Damped cubic response)
  Berta Fernandez,          U. of Santiago de Compostela, Spain       (Doublet spin, ESR in RESPONS)
  Lara Ferrighi,            Aarhus University,            Denmark     (PCM Cubic response)
  Heike Fliegl,             University of Oslo,           Norway      (CCSD(R12))
  Luca Frediani,            UiT The Arctic U. of Norway,  Norway      (PCM)
  Emmanuel Fromager,        Univ. Strasbourg,             France      (MC-srDFT)
  Bin Gao,                  UiT The Arctic U. of Norway,  Norway      (Gen1Int library)
  Andre S. P. Gomes,        CNRS/Universite de Lille,     France      (Frozen density embedding)
  Christof Haettig,         Ruhr-University Bochum,       Germany     (CC module)
  Kasper Hald,              Aarhus University,            Denmark     (CC module)
  Asger Halkier,            Aarhus University,            Denmark     (CC module)
  Frederik Beyer Hansen,    University of Copenhagen,     Denmark     (Parallel AO-SOPPA)
  Erik D. Hedegaard,        Univ. of Southern Denmark,    Denmark     (Polarizable embedding, QM/MM, and MC-srDFT)
  Hanne Heiberg,            University of Oslo,           Norway      (Geometry analysis, selected one-electron integrals)
  Trygve Helgaker,          University of Oslo,           Norway      (DALTON; ABACUS, ERI, DFT modules, London, and much more)
  Alf Christian Hennum,     University of Oslo,           Norway      (Parity violation)
  Hinne Hettema,            University of Auckland,       New Zealand (Quadratic response in RESPONS; SIRIUS supersymmetry)
  Eirik Hjertenaes,         NTNU,                         Norway      (Cholesky decomposition)
  Pi A. B. Haase,           University of Copenhagen,     Denmark     (Triplet AO-SOPPA)
  Maria Francesca Iozzi,    University of Oslo,           Norway      (RPA)
  Christoph Jacob           TU Braunschweig               Germany     (Frozen density embedding)
  Brano Jansik              Technical Univ. of Ostrava    Czech Rep.  (DFT cubic response)
  Hans Joergen Aa. Jensen,  Univ. of Southern Denmark,    Denmark     (DALTON; SIRIUS, RESPONS, ABACUS, MC-srDFT, and much more)
  Dan Jonsson,              UiT The Arctic U. of Norway,  Norway      (Cubic response in RESPONS module)
  Poul Joergensen,          Aarhus University,            Denmark     (RESPONS, ABACUS, and CC modules)
  Maciej Kaminski,          University of Warsaw,         Poland      (CPPh in RESPONS)
  Joanna Kauczor,           Linkoeping University,        Sweden      (Complex polarization propagator (CPP) module)
  Sheela Kirpekar,          Univ. of Southern Denmark,    Denmark     (Mass-velocity & Darwin integrals)
  Erik Kjellgren,           Univ. of Southern Denmark,    Denmark     (MC-srDFT)
  Wim Klopper,              KIT Karlsruhe,                Germany     (R12 code in CC, SIRIUS, and ABACUS modules)
  Stefan Knecht,            ETH Zurich,                   Switzerland (Parallel CI and MCSCF, MC-srDFT)
  Rika Kobayashi,           Australian National Univ.,    Australia   (DIIS in CC, London in MCSCF)
  Henrik Koch,              NTNU,                         Norway      (CC module, Cholesky decomposition)
  Jacob Kongsted,           Univ. of Southern Denmark,    Denmark     (Polarizable embedding, polarizable density embedding, QM/MM)
  Andrea Ligabue,           University of Modena,         Italy       (CTOCD, AOSOPPA)
  Nanna H. List             Univ. of Southern Denmark,    Denmark     (Polarizable embedding)
  Ola B. Lutnaes,           University of Oslo,           Norway      (DFT Hessian)
  Juan I. Melo,             University of Buenos Aires,   Argentina   (LRESC, Relativistic Effects on NMR Shieldings)
  Kurt V. Mikkelsen,        University of Copenhagen,     Denmark     (MC-SCRF and QM/MM)
  Rolf H. Myhre,            NTNU,                         Norway      (Subsystems and CC3)
  Christian Neiss,          Univ. Erlangen-Nuernberg,     Germany     (CCSD(R12))
  Christian B. Nielsen,     University of Copenhagen,     Denmark     (QM/MM)
  Patrick Norman,           KTH Stockholm,                Sweden      (Cubic response and complex frequency response in RESPONS)
  Jeppe Olsen,              Aarhus University,            Denmark     (SIRIUS CI/density modules)
  Jogvan Magnus H. Olsen,   Aarhus University,            Denmark     (Polarizable embedding and polarizable density embedding)
  Anders Osted,             Copenhagen University,        Denmark     (QM/MM)
  Martin J. Packer,         University of Sheffield,      UK          (SOPPA)
  Filip Pawlowski,          Kazimierz Wielki University,  Poland      (CC3)
  Morten N. Pedersen,       Univ. of Southern Denmark,    Denmark     (Polarizable embedding)
  Thomas B. Pedersen,       University of Oslo,           Norway      (Cholesky decomposition)
  Patricio F. Provasi,      University of Northeastern,   Argentina   (Analysis of coupling constants in localized orbitals)
  Peter Reinholdt,          Univ. of Southern Denmark,    Denmark     (Polarizable embedding and polarizable density embedding)
  Zilvinas Rinkevicius,     KTH Stockholm,                Sweden      (open-shell DFT, ESR)
  Elias Rudberg,            KTH Stockholm,                Sweden      (DFT grid and basis info)
  Torgeir A. Ruden,         University of Oslo,           Norway      (Numerical derivatives in ABACUS)
  Kenneth Ruud,             UiT The Arctic U. of Norway,  Norway      (DALTON; ABACUS magnetic properties and much more)
  Pawel Salek,              KTH Stockholm,                Sweden      (DALTON; DFT code)
  Claire C. M. Samson       University of Karlsruhe       Germany     (Boys localization, r12 integrals in ERI)
  Alfredo Sanchez de Meras, University of Valencia,       Spain       (CC module, Cholesky decomposition)
  Trond Saue,               Paul Sabatier University,     France      (direct Fock matrix construction)
  Stephan P. A. Sauer,      University of Copenhagen,     Denmark     (SOPPA(CCSD), SOPPA prop., AOSOPPA, vibrational g-factors)
  Bernd Schimmelpfennig,    Forschungszentrum Karlsruhe,  Germany     (AMFI module)
  Anna K. Schnack-Petersen, University of Copenhagen,     Denmark     (RPA(D) and HRPA(D) properties in AOSOPPA)
  Kristian Sneskov,         Aarhus University,            Denmark     (Polarizable embedding, QM/MM)
  Arnfinn H. Steindal,      UiT The Arctic U. of Norway,  Norway      (parallel QM/MM, polarizable embedding)
  Casper Steinmann,         Aalborg University,           Denmark     (QFIT, polarizable embedding)
  K. O. Sylvester-Hvid,     University of Copenhagen,     Denmark     (MC-SCRF)
  Peter R. Taylor,          VLSCI/Univ. of Melbourne,     Australia   (Symmetry handling ABACUS, integral transformation)
  Andrew M. Teale,          University of Nottingham,     England     (DFT-AC, DFT-D)
  David P. Tew,             University of Bristol,        England     (CCSD(R12))
  Julien Toulouse,          Sorbonne Univ.,               France      (MC-srDFT)
  Olav Vahtras,             KTH Stockholm,                Sweden      (Triplet response, spin-orbit, ESR, TDDFT, open-shell DFT)
  Lucas Visscher,           Vrije Universiteit Amsterdam, Netherlands (Frozen density embedding)
  David J. Wilson,          La Trobe University,          Australia   (DFT Hessian and DFT magnetizabilities)
  Hans Agren,               KTH Stockholm,                Sweden      (SIRIUS module, RESPONS, MC-SCRF solvation)
 --------------------------------------------------------------------------------

     Date and time (Linux)  : Sat May 31 08:08:22 2025
     Host name              : xm052                                   

 * Work memory size             :   131072000 = 1000.00 megabytes.

 * Directories for basis set searches:
   1) /gpfs/projects/rjh/adrian/summer2025/beta_projects/raw_data/NLO/dalton/hf/n12/dipole
   2) /gpfs/projects/rjh/adrian/dalton/build/basis


Compilation information
-----------------------

 Who compiled             | ahurtado
 Host                     | milan2
 System                   | Linux-5.14.0-427.42.1.el9_4.x86_64
 CMake generator          | Unix Makefiles
 Processor                | x86_64
 64-bit integers          | OFF
 MPI                      | ON
 Fortran compiler         | /gpfs/software/openmpi/milan/gcc13.2/4.1.6/bin/mpi
                          | f90
 Fortran compiler version | GNU Fortran (GCC) 13.2.0
 C compiler               | /gpfs/software/openmpi/milan/gcc13.2/4.1.6/bin/mpi
                          | cc
 C compiler version       | gcc (GCC) 13.2.0
 C++ compiler             | /gpfs/software/openmpi/milan/gcc13.2/4.1.6/bin/mpi
                          | cxx
 C++ compiler version     | unknown
 BLAS                     | /gpfs/software/intel/oneAPI/2024_2/mkl/2024.2/lib/
                          | intel64/libmkl_gf_lp64.so;/gpfs/software/intel/one
                          | API/2024_2/mkl/2024.2/lib/intel64/libmkl_sequentia
                          | l.so;/gpfs/software/intel/oneAPI/2024_2/mkl/2024.2
                          | /lib/intel64/libmkl_core.so;/usr/lib64/libpthread.
                          | a;/usr/lib64/libm.so
 LAPACK                   | /gpfs/software/intel/oneAPI/2024_2/mkl/2024.2/lib/
                          | intel64/libmkl_lapack95_lp64.a;/gpfs/software/inte
                          | l/oneAPI/2024_2/mkl/2024.2/lib/intel64/libmkl_gf_l
                          | p64.so
 Static linking           | OFF
 Last Git revision        | 66052b3af5ea7225e31178bf9a8b031913c72190
 Git branch               | (HEAD detached at Dalton2020.0)
 Configuration time       | 2025-04-10 16:02:31.569498

 * MPI parallel run using 576 processes.


   Content of the .dal input file
 ----------------------------------

**DALTON INPUT
.RUN RESPONSE
.DIRECT
**WAVE FUNCTIONS
.HF
**PROPERTIES
**RESPONSE
*QUADRA
.DIPLEN
.FREQUENCIES
2
0.0 0.016
**END OF DALTON INPUT


   Content of the .mol file
 ----------------------------

BASIS
d-aug-cc-pVTZ
blah
blah
Atomtype=4 Angstrom Charge=0 Nosymmetry
Charge=6 Atoms=24
C_a 0.3580729984542411 -3.23821500246098 0.0
C_b 0.6668920025089234 -1.8967230021925146 0.0
C_c -0.31386499980588656 -0.8461899999464687 0.0
C_d 0.0 0.49460499985073547 0.0
C_e -0.9760669999485396 1.5491160018178671 0.0
C_f -0.6568810015786077 2.8888150015269645 0.0
C_g -1.6277509997671062 3.94816100041609 0.0
C_h -1.301926002321602 5.286146000431598 0.0
C_i -2.266093997595825 6.352103999775008 0.0
C_j -1.9310690003377617 7.687350999860106 0.0
C_k -2.8855839989400045 8.763118997462131 0.0
C_l -2.5364960008893993 10.093720001557799 0.0
C_m -3.475062000536728 11.185541997456877 0.0
C_n -3.1003099978736817 12.50702899832849 0.0
C_o -4.006745997738482 13.627608997447128 0.0
C_p -3.5646809975535416 14.924006997663415 0.0
C_q 3.246977002296268 -12.722374002304349 0.0
C_r 3.505096998325759 -11.394324997641315 0.0
C_s 2.469080999168377 -10.384737997547434 0.0
C_t 2.747355000313701 -9.04300299910383 0.0
C_u 1.7412740003278493 -8.010249001734408 0.0
C_v 2.034720999091044 -6.6680930004855385 0.0
C_w 1.0413089989552107 -5.626705000664547 0.0
C_x 1.3440610021648778 -4.284781001288378 0.0
Charge=7 Atoms=2
N_a -4.34941500213885 16.045511998546303 0.0
N_b 4.329315999702294 -13.700565998010687 0.0
Charge=8 Atoms=2
O_a 3.975711998044059 -14.88588500261371 0.0
O_b 5.495162002633667 -13.299550999175127 0.0
Charge=1 Atoms=26
H_a -0.7010630017506021 -3.5345659987538016 0.0
H_b 1.7270470022259492 -1.602783000772771 0.0
H_c -1.3743469992884736 -1.1379549983620045 0.0
H_d 1.0614080013917666 0.7841610009180505 0.0
H_e -2.0377939999464423 1.2617729986784856 0.0
H_f 0.4058810002503279 3.1736170015361505 0.0
H_g -2.69087900172203 3.666001002299527 0.0
H_h -0.23745300123386257 5.5648799994508416 0.0
H_i -3.331021000979687 6.076852997530446 0.0
H_j -0.8641970008243106 7.957424997951419 0.0
H_k -3.9530280019757846 8.49803499758959 0.0
H_l -1.4658389978753656 10.349718002264273 0.0
H_m -4.546436001628814 10.937914998128267 0.0
H_n -2.0230369991174233 12.73533200170443 0.0
H_o -5.086749000557497 13.426423997738299 0.0
H_p -2.4860810022731745 15.125354999828447 0.0
H_q -5.357553998755857 15.972702998265024 0.0
H_r -3.9401509984395693 16.966787000540688 0.0
H_s 2.2588980024636176 -13.186488001780075 0.0
H_t 4.555452001233451 -11.07896899871019 0.0
H_u 1.4211929992497394 -10.714244999441236 0.0
H_v 3.8003869996029587 -8.72551199767385 0.0
H_w 0.687156002399766 -8.322594998357067 0.0
H_x 3.091255998053547 -6.361639000512555 0.0
H_y -0.01596000054912352 -5.9291510018603715 0.0
H_z 2.4027659981151746 -3.985781002088436 0.0


       *******************************************************************
       *********** Output from DALTON general input processing ***********
       *******************************************************************

 --------------------------------------------------------------------------------
   Overall default print level:    0
   Print level for DALTON.STAT:    1

    Parallel calculation using MPI
    AO-direct calculation (in sections where implemented)
    HERMIT 1- and 2-electron integral sections will be executed
    "Old" integral transformation used (limited to max 255 basis functions)
    Wave function sections will be executed (SIRIUS module)
    Dynamic molecular response properties section will be executed (RESPONSE module)
 --------------------------------------------------------------------------------


   ****************************************************************************
   *************** Output of molecule and basis set information ***************
   ****************************************************************************


    The two title cards from your ".mol" input:
    ------------------------------------------------------------------------
 1: blah                                                                    
 2: blah                                                                    
    ------------------------------------------------------------------------

  Coordinates are entered in Angstrom and converted to atomic units.
          - Conversion factor : 1 bohr = 0.52917721 A

  Atomic type no.    1
  --------------------
  Nuclear charge:   6.00000
  Number of symmetry independent centers:   24
  Number of basis sets to read;    2
  Basis set file used for this atomic type with Z =   6 :
     "/gpfs/projects/rjh/adrian/dalton/build/basis/aug-cc-pVTZ"

  Atomic type no.    2
  --------------------
  Nuclear charge:   7.00000
  Number of symmetry independent centers:    2
  Number of basis sets to read;    2
  Basis set file used for this atomic type with Z =   7 :
     "/gpfs/projects/rjh/adrian/dalton/build/basis/aug-cc-pVTZ"

  Atomic type no.    3
  --------------------
  Nuclear charge:   8.00000
  Number of symmetry independent centers:    2
  Number of basis sets to read;    2
  Basis set file used for this atomic type with Z =   8 :
     "/gpfs/projects/rjh/adrian/dalton/build/basis/aug-cc-pVTZ"

  Atomic type no.    4
  --------------------
  Nuclear charge:   1.00000
  Number of symmetry independent centers:   26
  Number of basis sets to read;    2
  Basis set file used for this atomic type with Z =   1 :
     "/gpfs/projects/rjh/adrian/dalton/build/basis/aug-cc-pVTZ"


                         SYMGRP: Point group information
                         -------------------------------

@    Point group: C1 


                                 Isotopic Masses
                                 ---------------

                           C_a        12.000000
                           C_b        12.000000
                           C_c        12.000000
                           C_d        12.000000
                           C_e        12.000000
                           C_f        12.000000
                           C_g        12.000000
                           C_h        12.000000
                           C_i        12.000000
                           C_j        12.000000
                           C_k        12.000000
                           C_l        12.000000
                           C_m        12.000000
                           C_n        12.000000
                           C_o        12.000000
                           C_p        12.000000
                           C_q        12.000000
                           C_r        12.000000
                           C_s        12.000000
                           C_t        12.000000
                           C_u        12.000000
                           C_v        12.000000
                           C_w        12.000000
                           C_x        12.000000
                           N_a        14.003074
                           N_b        14.003074
                           O_a        15.994915
                           O_b        15.994915
                           H_a         1.007825
                           H_b         1.007825
                           H_c         1.007825
                           H_d         1.007825
                           H_e         1.007825
                           H_f         1.007825
                           H_g         1.007825
                           H_h         1.007825
                           H_i         1.007825
                           H_j         1.007825
                           H_k         1.007825
                           H_l         1.007825
                           H_m         1.007825
                           H_n         1.007825
                           H_o         1.007825
                           H_p         1.007825
                           H_q         1.007825
                           H_r         1.007825
                           H_s         1.007825
                           H_t         1.007825
                           H_u         1.007825
                           H_v         1.007825
                           H_w         1.007825
                           H_x         1.007825
                           H_y         1.007825
                           H_z         1.007825

                       Total mass:   374.199428 amu
                       Natural abundance:  75.459 %

 Center-of-mass coordinates (a.u.):    0.093454   -0.289436    0.000000
 Center-of-mass coordinates (Angs):    0.049454   -0.153163    0.000000


  Atoms and basis sets
  --------------------

  Number of atom types :    4
  Total number of atoms:   54

  Basis set used is "d-aug-cc-pVTZ" from the basis set library.

  label    atoms   charge   prim   cont     basis
  ----------------------------------------------------------------------
  C_         24    6.0000    74    62      [12s7p4d3f|6s5p4d3f]                               
  N_          2    7.0000    74    62      [12s7p4d3f|6s5p4d3f]                               
  O_          2    8.0000    74    62      [12s7p4d3f|6s5p4d3f]                               
  H_         26    1.0000    34    32      [7s4p3d|5s4p3d]                                    
  ----------------------------------------------------------------------
  total:     54  200.0000  2956  2568
  ----------------------------------------------------------------------
  Spherical harmonic basis used.

  Threshold for neglecting AO integrals:  1.00D-12

  Max    interatomic separation is   32.8215 Angstrom (   62.0237 Bohr)
  between atoms   46 and   27, "H_r   " and "O_a   ".

  Min HX interatomic separation is    1.0081 Angstrom (    1.9050 Bohr)

  Min YX interatomic separation is    1.2329 Angstrom (    2.3298 Bohr)


  Bond distances (Angstrom):
  --------------------------

                  atom 1     atom 2       distance
                  ------     ------       --------
  bond distance:  C_b        C_a          1.376579
  bond distance:  C_c        C_b          1.437186
  bond distance:  C_d        C_c          1.377041
  bond distance:  C_e        C_d          1.436906
  bond distance:  C_f        C_e          1.377198
  bond distance:  C_g        C_f          1.436942
  bond distance:  C_h        C_g          1.377086
  bond distance:  C_i        C_h          1.437319
  bond distance:  C_j        C_i          1.376636
  bond distance:  C_k        C_j          1.438185
  bond distance:  C_l        C_k          1.375631
  bond distance:  C_m        C_l          1.439785
  bond distance:  C_n        C_m          1.373596
  bond distance:  C_o        C_n          1.441293
  bond distance:  C_p        C_o          1.369697
  bond distance:  C_r        C_q          1.352901
  bond distance:  C_s        C_r          1.446580
  bond distance:  C_t        C_s          1.370288
  bond distance:  C_u        C_t          1.441797
  bond distance:  C_v        C_u          1.373861
  bond distance:  C_w        C_v          1.439221
  bond distance:  C_x        C_a          1.437871
  bond distance:  C_x        C_w          1.375652
  bond distance:  N_a        C_p          1.368788
  bond distance:  N_b        C_q          1.458875
  bond distance:  O_a        N_b          1.236939
  bond distance:  O_b        N_b          1.232887
  bond distance:  H_a        C_a          1.099815
  bond distance:  H_b        C_b          1.100150
  bond distance:  H_c        C_c          1.099886
  bond distance:  H_d        C_d          1.100195
  bond distance:  H_e        C_e          1.099923
  bond distance:  H_f        C_f          1.100261
  bond distance:  H_g        C_g          1.099934
  bond distance:  H_h        C_h          1.100361
  bond distance:  H_i        C_i          1.099924
  bond distance:  H_j        C_j          1.100525
  bond distance:  H_k        C_k          1.099866
  bond distance:  H_l        C_l          1.100837
  bond distance:  H_m        C_m          1.099619
  bond distance:  H_n        C_n          1.101199
  bond distance:  H_o        C_o          1.098582
  bond distance:  H_p        C_p          1.097232
  bond distance:  H_q        N_a          1.010765
  bond distance:  H_r        N_a          1.008090
  bond distance:  H_s        C_q          1.091651
  bond distance:  H_t        C_r          1.096675
  bond distance:  H_u        C_s          1.098474
  bond distance:  H_v        C_t          1.099853
  bond distance:  H_w        C_u          1.099420
  bond distance:  H_x        C_v          1.100082
  bond distance:  H_y        C_w          1.099678
  bond distance:  H_z        C_x          1.100117


  Bond angles (degrees):
  ----------------------

                  atom 1     atom 2     atom 3         angle
                  ------     ------     ------         -----
  bond angle:     C_b        C_a        C_x          123.743
  bond angle:     C_b        C_a        H_a          118.596
  bond angle:     C_x        C_a        H_a          117.661
  bond angle:     C_a        C_b        C_c          124.003
  bond angle:     C_a        C_b        H_b          118.461
  bond angle:     C_c        C_b        H_b          117.536
  bond angle:     C_b        C_c        C_d          123.792
  bond angle:     C_b        C_c        H_c          117.650
  bond angle:     C_d        C_c        H_c          118.558
  bond angle:     C_c        C_d        C_e          124.037
  bond angle:     C_c        C_d        H_d          118.434
  bond angle:     C_e        C_d        H_d          117.528
  bond angle:     C_d        C_e        C_f          123.811
  bond angle:     C_d        C_e        H_e          117.644
  bond angle:     C_f        C_e        H_e          118.545
  bond angle:     C_e        C_f        C_g          124.094
  bond angle:     C_e        C_f        H_f          118.403
  bond angle:     C_g        C_f        H_f          117.503
  bond angle:     C_f        C_g        C_h          123.809
  bond angle:     C_f        C_g        H_g          117.641
  bond angle:     C_h        C_g        H_g          118.550
  bond angle:     C_g        C_h        C_i          124.184
  bond angle:     C_g        C_h        H_h          118.360
  bond angle:     C_i        C_h        H_h          117.456
  bond angle:     C_h        C_i        C_j          123.785
  bond angle:     C_h        C_i        H_i          117.638
  bond angle:     C_j        C_i        H_i          118.577
  bond angle:     C_i        C_j        C_k          124.333
  bond angle:     C_i        C_j        H_j          118.291
  bond angle:     C_k        C_j        H_j          117.376
  bond angle:     C_j        C_k        C_l          123.717
  bond angle:     C_j        C_k        H_k          117.636
  bond angle:     C_l        C_k        H_k          118.647
  bond angle:     C_k        C_l        C_m          124.616
  bond angle:     C_k        C_l        H_l          118.148
  bond angle:     C_m        C_l        H_l          117.236
  bond angle:     C_l        C_m        C_n          123.484
  bond angle:     C_l        C_m        H_m          117.669
  bond angle:     C_n        C_m        H_m          118.847
  bond angle:     C_m        C_n        C_o          125.198
  bond angle:     C_m        C_n        H_n          117.798
  bond angle:     C_o        C_n        H_n          117.004
  bond angle:     C_n        C_o        C_p          122.202
  bond angle:     C_n        C_o        H_o          118.417
  bond angle:     C_p        C_o        H_o          119.381
  bond angle:     C_o        C_p        N_a          126.190
  bond angle:     C_o        C_p        H_p          119.403
  bond angle:     N_a        C_p        H_p          114.407
  bond angle:     C_r        C_q        N_b          121.108
  bond angle:     C_r        C_q        H_s          126.159
  bond angle:     N_b        C_q        H_s          112.733
  bond angle:     C_q        C_r        C_s          123.261
  bond angle:     C_q        C_r        H_t          117.711
  bond angle:     C_s        C_r        H_t          119.028
  bond angle:     C_r        C_s        C_t          122.543
  bond angle:     C_r        C_s        H_u          118.285
  bond angle:     C_t        C_s        H_u          119.173
  bond angle:     C_s        C_t        C_u          124.033
  bond angle:     C_s        C_t        H_v          118.495
  bond angle:     C_u        C_t        H_v          117.472
  bond angle:     C_t        C_u        C_v          123.417
  bond angle:     C_t        C_u        H_w          117.745
  bond angle:     C_v        C_u        H_w          118.838
  bond angle:     C_u        C_v        C_w          124.018
  bond angle:     C_u        C_v        H_x          118.508
  bond angle:     C_w        C_v        H_x          117.474
  bond angle:     C_v        C_w        C_x          123.637
  bond angle:     C_v        C_w        H_y          117.685
  bond angle:     C_x        C_w        H_y          118.678
  bond angle:     C_a        C_x        C_w          123.993
  bond angle:     C_a        C_x        H_z          117.522
  bond angle:     C_w        C_x        H_z          118.484
  bond angle:     C_p        N_a        H_q          120.850
  bond angle:     C_p        N_a        H_r          121.066
  bond angle:     H_q        N_a        H_r          118.083
  bond angle:     C_q        N_b        O_a          115.496
  bond angle:     C_q        N_b        O_b          118.912
  bond angle:     O_a        N_b        O_b          125.593




 Principal moments of inertia (u*A**2) and principal axes
 --------------------------------------------------------

   IA     140.262994         -0.275195    0.961388    0.000000
   IB   37833.783511          0.961388    0.275195    0.000000
   IC   37974.046505          0.000000    0.000000    1.000000


 Rotational constants
 --------------------

@    The molecule is planar.

               A                   B                   C

           3603.0815             13.3579             13.3085 MHz
            0.120186            0.000446            0.000444 cm-1


@  Nuclear repulsion energy : 1740.311733291155 Hartree


                     .---------------------------------------.
                     | Starting in Integral Section (HERMIT) |
                     `---------------------------------------'



 ***************************************************************************************
 ****************** Output from **INTEGRALS input processing (HERMIT) ******************
 ***************************************************************************************


 - Using defaults, no **INTEGRALS input found

 Default print level:        1

 Calculation of one-electron Hamiltonian integrals.

 Center of mass  (bohr):      0.093454216468     -0.289436425668      0.000000000000
 Operator center (bohr):      0.000000000000      0.000000000000      0.000000000000
 Gauge origin    (bohr):      0.000000000000      0.000000000000      0.000000000000
 Dipole origin   (bohr):      0.000000000000      0.000000000000      0.000000000000


     ************************************************************************
     ************************** Output from HERINT **************************
     ************************************************************************



                      Nuclear contribution to dipole moments
                      --------------------------------------

                 au               Debye          C m (/(10**-30)

      x      0.00000383         0.00000973         0.00003247
      y     -0.00000583        -0.00001482        -0.00004943
      z      0.00000000         0.00000000         0.00000000


  Time used in ONEDRV     is      11.41 seconds
  Time used in HUCKEL     is       2.30 seconds
  Time used in OVERLAP    is       1.33 seconds
  Time used in POPOVLP    is       2.58 seconds
  Time used in R2         is       1.60 seconds
  Time used in R4         is       1.87 seconds
  Time used in DIPLEN     is       2.31 seconds
  Time used in QUADRUP    is       4.49 seconds
  Time used in KINENE     is       2.09 seconds
  Time used in GABGEN     is      22.44 seconds
  Total CPU  time used in HERMIT:  52.41 seconds
  Total wall time used in HERMIT:  52.74 seconds


                        .----------------------------------.
                        | End of Integral Section (HERMIT) |
                        `----------------------------------'



                   .--------------------------------------------.
                   | Starting in Wave Function Section (SIRIUS) |
                   `--------------------------------------------'



@ Primary orbitals are deleted during canonical orthonormalization
@   because of detected numerical linear dependence or too large coefficients.
@ Eigenvalue threshold for num. lin. dep. =  1.00D-06

@ 185 MO components are deleted in symmetry    1
 Overlap eigenvalues of the deleted orbitals:
  9.86D-07  9.69D-07  9.59D-07  9.49D-07  9.37D-07
  9.29D-07  9.03D-07  9.00D-07  8.68D-07  8.46D-07
  7.97D-07  7.64D-07  7.42D-07  7.09D-07  6.65D-07
  6.43D-07  6.20D-07  5.94D-07  5.77D-07  5.63D-07
  5.53D-07  5.38D-07  5.35D-07  5.15D-07  4.91D-07
  4.78D-07  4.69D-07  4.55D-07  4.43D-07  4.37D-07
  4.27D-07  4.14D-07  4.03D-07  3.98D-07  3.83D-07
  3.78D-07  3.78D-07  3.61D-07  3.54D-07  3.35D-07
  3.24D-07  3.08D-07  3.06D-07  3.01D-07  2.92D-07
  2.88D-07  2.82D-07  2.68D-07  2.64D-07  2.51D-07
  2.38D-07  2.36D-07  2.16D-07  2.13D-07  2.03D-07
  1.98D-07  1.92D-07  1.88D-07  1.76D-07  1.73D-07
  1.60D-07  1.56D-07  1.52D-07  1.51D-07  1.44D-07
  1.37D-07  1.33D-07  1.32D-07  1.29D-07  1.27D-07
  1.19D-07  1.13D-07  1.10D-07  1.06D-07  1.06D-07
  1.01D-07  9.41D-08  9.34D-08  9.17D-08  8.75D-08
  8.60D-08  8.33D-08  8.23D-08  8.11D-08  7.88D-08
  7.65D-08  7.60D-08  7.45D-08  7.05D-08  6.99D-08
  6.88D-08  6.79D-08  6.54D-08  6.47D-08  6.28D-08
  6.02D-08  5.89D-08  5.77D-08  5.62D-08  5.38D-08
  5.20D-08  5.12D-08  5.00D-08  4.73D-08  4.66D-08
  4.45D-08  4.38D-08  4.14D-08  4.11D-08  3.73D-08
  3.64D-08  3.54D-08  3.51D-08  3.41D-08  3.39D-08
  3.10D-08  3.06D-08  2.96D-08  2.64D-08  2.55D-08
  2.46D-08  2.45D-08  2.26D-08  2.17D-08  2.07D-08
  1.99D-08  1.85D-08  1.75D-08  1.72D-08  1.66D-08
  1.57D-08  1.49D-08  1.37D-08  1.29D-08  1.22D-08
  1.13D-08  1.01D-08  9.29D-09  9.28D-09  8.73D-09
  8.55D-09  8.20D-09  7.79D-09  7.13D-09  6.90D-09
  6.73D-09  6.21D-09  6.09D-09  5.72D-09  5.22D-09
  4.98D-09  4.85D-09  3.93D-09  3.69D-09  3.66D-09
  3.45D-09  3.33D-09  3.17D-09  2.94D-09  2.28D-09
  2.05D-09  1.99D-09  1.74D-09  1.72D-09  1.64D-09
  1.44D-09  1.18D-09  1.05D-09  1.03D-09  9.28D-10
  8.97D-10  7.57D-10  7.10D-10  5.67D-10  5.12D-10
  4.69D-10  4.53D-10  2.83D-10  2.61D-10  2.58D-10
  1.75D-10  5.21D-11  4.73D-11  3.08D-11  2.67D-11

 Max MO coeff. of last deleted MO & limit:  2.93D+02  1.00D+03

WARNING: Orbitals have been deleted because of numerical
   linear dependence although not requested in input.

 *** Output from Huckel module :

     Using EWMO model:          T
     Using EHT  model:          F
     Number of Huckel orbitals each symmetry:  166

 EWMO - Energy Weighted Maximum Overlap - is a Huckel type method,
        which normally is better than Extended Huckel Theory.
 Reference: Linderberg and Ohrn, Propagators in Quantum Chemistry (Wiley, 1973)

 Huckel EWMO eigenvalues for symmetry :  1
          -20.684753     -20.683497     -15.677079     -15.674962     -11.359394
          -11.359350     -11.359118     -11.359058     -11.358824     -11.358586
          -11.357741     -11.356591     -11.355230     -11.353765     -11.352311
          -11.351023     -11.348583     -11.347777     -11.346971     -11.346307
          -11.345818     -11.345522     -11.345464     -11.345425     -11.345311
          -11.345297     -11.345197     -11.345189      -1.964011      -1.792674
           -1.789301      -1.780329      -1.762146      -1.731489      -1.686309
           -1.626472      -1.553811      -1.473325      -1.442154      -1.378556
           -1.286931      -1.210078      -1.196357      -1.184738      -1.150264
           -1.104614      -1.101462      -1.047056      -1.014902      -0.985810
           -0.941618      -0.919563      -0.878671      -0.855342      -0.852013
           -0.825157      -0.817088      -0.783067      -0.764995      -0.747067
           -0.742305      -0.737399      -0.702586      -0.691743      -0.677046
           -0.662816      -0.654788      -0.634880      -0.620163      -0.615685
           -0.598782      -0.586029      -0.575561      -0.573885      -0.558293
           -0.540747      -0.532295      -0.530884      -0.523157      -0.507304
           -0.499012      -0.494633      -0.492781      -0.490185      -0.488753
           -0.486517      -0.484696      -0.479496      -0.479291      -0.474729
           -0.474639      -0.457411      -0.450656      -0.426088      -0.414608
           -0.398388      -0.382666      -0.376948      -0.363349      -0.355208
           -0.335806      -0.304341      -0.282961      -0.264085      -0.247935
           -0.234409      -0.229133      -0.223314      -0.214413      -0.207450
           -0.202165      -0.200917      -0.198323      -0.195725      -0.194224
           -0.190584      -0.166727      -0.142733      -0.138992      -0.135175
           -0.132643      -0.131589      -0.131336      -0.130637      -0.129925
           -0.129796      -0.129494      -0.129402      -0.128978      -0.128684
           -0.127673      -0.127369      -0.127185      -0.126476      -0.126268
           -0.126008      -0.125581      -0.124706      -0.124538      -0.123961
           -0.123650      -0.123200      -0.112568      -0.111634      -0.108803
           -0.106726      -0.104118      -0.101936      -0.099435      -0.097321
           -0.094962      -0.093758      -0.091421      -0.090788      -0.088993
           -0.088193      -0.087181      -0.086294      -0.085735      -0.085136
           -0.084454      -0.083192      -0.081955      -0.080787      -0.079839
           -0.079342

 **********************************************************************
 *SIRIUS* a direct, restricted step, second order MCSCF program       *
 **********************************************************************

 
     Date and time (Linux)  : Sat May 31 08:26:09 2025
     Host name              : xm052                                   

 Title lines from ".mol" input file:
     blah                                                                    
     blah                                                                    

 Print level on unit LUPRI =   2 is   0
 Print level on unit LUW4  =   2 is   5

@    Restricted, closed shell Hartree-Fock calculation.

@    Time-dependent Hartree-Fock calculation (random phase approximation).
 Fock matrices are calculated directly and in parallel without use of integrals on disk.

 Initial molecular orbitals are obtained according to
 ".MOSTART EWMO  " input option

     Wave function specification
     ============================
@    Wave function type        --- HF ---
@    Number of closed shell electrons         200
@    Number of electrons in active shells       0
@    Total charge of the molecule               0

@    Spin multiplicity and 2 M_S                1         0
@    Total number of symmetries                 1 (point group: C1 )
@    Reference state symmetry                   1 (irrep name : A  )

     Orbital specifications
     ======================
@    Abelian symmetry species          All |    1
@                                          |  A  
                                       --- |  ---
@    Occupied SCF orbitals             100 |  100
@    Secondary orbitals               2283 | 2283
@    Total number of orbitals         2383 | 2383
@    Number of basis functions        2568 | 2568

     Optimization information
     ========================
@    Number of configurations                 1
@    Number of orbital rotations         228300
     ------------------------------------------
@    Total number of variables           228301

     Maximum number of Fock   iterations      0
     Maximum number of DIIS   iterations     60
     Maximum number of QC-SCF iterations     60
     Threshold for SCF convergence     1.00D-05

    INFORMATION: Switched to "new" integral transformation (from 1988 ;-) )
    because more than 255 basis functions.


 ***********************************************
 ***** DIIS acceleration of SCF iterations *****
 ***********************************************

 C1-DIIS algorithm; max error vectors =    8

 Iter      Total energy        Error norm    Delta(E)  DIIS dim.
 -----------------------------------------------------------------------------
   1  Screening settings (-IFTHRS, JTDIIS, DIFDEN, times)  -10    1    T  2.03D+02  2.03D+02
@  1    -1178.26400154        8.26924D+00   -1.18D+03    1
      Virial theorem: -V/T =      2.011999
@    MULPOP   C_a     0.30; C_b     0.34; C_c     0.31; C_d     0.31; C_e     0.26; C_f     0.34; C_g     0.25; C_h     0.27; C_i     0.33; C_j     0.31; 
@             C_k     0.19; C_l     0.27; C_m     0.10; C_n     0.30; C_o     0.14; C_p     0.49; C_q     0.09; C_r     0.43; C_s     0.26; C_t     0.27; 
@             C_u     0.24; C_v     0.31; C_w     0.32; C_x     0.25; N_a    -0.90; N_b     0.01; O_a    -0.78; O_b    -0.77; H_a    -0.26; H_b    -0.28; 
@    MULPOP    dipole moment & components:     35.5784;      -11.9516     33.5110      0.0000
   1  Level shift: doubly occupied orbital energies shifted by -2.00D-01
 -----------------------------------------------------------------------------
   2  Screening settings (-IFTHRS, JTDIIS, DIFDEN, times)  -10    2    T  2.01D+02  2.03D+02
@  2    -1182.12326764        3.08799D+00   -3.86D+00    2
      Virial theorem: -V/T =      2.000513
@    MULPOP   C_a     0.24; C_b     0.18; C_c     0.23; C_d     0.08; C_e     0.20; C_f     0.16; C_g     0.29; C_h     0.02; C_i     0.35; C_j     0.15; 
@             C_k     0.05; C_l     0.11; C_m     0.01; C_n     0.17; C_o     0.01; C_p    -0.17; C_q    -0.56; C_r     0.46; C_s     0.19; C_t     0.23; 
@             C_u    -0.04; C_v     0.18; C_w     0.27; C_x    -0.04; N_a    -0.71; N_b    -0.04; O_a    -0.66; O_b    -0.75; H_a    -0.14; H_b    -0.22; 
@    MULPOP    dipole moment & components:     15.9014;       -6.6673     14.4362      0.0000
   2  Level shift: doubly occupied orbital energies shifted by -1.00D-01
 -----------------------------------------------------------------------------
   3  Screening settings (-IFTHRS, JTDIIS, DIFDEN, times)  -10    3    T  1.97D+02  1.98D+02
@  3    -1182.61436044        1.09603D+00   -4.91D-01    3
      Virial theorem: -V/T =      2.001863
@    MULPOP   C_a     0.19; C_b     0.16; C_c     0.18; C_d     0.06; C_e     0.14; C_f     0.12; C_g     0.23; C_h    -0.00; C_i     0.26; C_j     0.13; 
@             C_k    -0.03; C_l     0.09; C_m    -0.07; C_n     0.20; C_o    -0.15; C_p     0.04; C_q    -0.23; C_r     0.37; C_s     0.18; C_t     0.19; 
@             C_u    -0.05; C_v     0.15; C_w     0.24; C_x    -0.04; N_a    -0.81; N_b     0.64; O_a    -1.21; O_b    -1.09; H_a    -0.09; H_b    -0.18; 
@    MULPOP    dipole moment & components:     13.0888;       -5.6987     11.7831      0.0000
   3  Level shift: doubly occupied orbital energies shifted by -5.00D-02
 -----------------------------------------------------------------------------
   4  Screening settings (-IFTHRS, JTDIIS, DIFDEN, times)  -10    4    T  1.94D+02  1.95D+02
@  4    -1182.68904116        3.19072D-01   -7.47D-02    4
      Virial theorem: -V/T =      2.003459
@    MULPOP   C_a     0.20; C_b     0.17; C_c     0.17; C_d     0.08; C_e     0.15; C_f     0.15; C_g     0.22; C_h     0.02; C_i     0.27; C_j     0.16; 
@             C_k    -0.04; C_l     0.10; C_m    -0.07; C_n     0.21; C_o    -0.18; C_p     0.06; C_q    -0.30; C_r     0.33; C_s     0.15; C_t     0.21; 
@             C_u    -0.03; C_v     0.15; C_w     0.25; C_x    -0.02; N_a    -0.85; N_b     0.56; O_a    -1.16; O_b    -1.05; H_a    -0.09; H_b    -0.18; 
@    MULPOP    dipole moment & components:     11.4678;       -5.0807     10.2810      0.0000
   4  Level shift: doubly occupied orbital energies shifted by -2.50D-02
 -----------------------------------------------------------------------------
   5  Screening settings (-IFTHRS, JTDIIS, DIFDEN, times)  -14    5    F  2.22D+02  2.23D+02
@  5    -1182.70439650        1.34667D-01   -1.54D-02    5
      Virial theorem: -V/T =      2.002754
@    MULPOP   C_a     0.22; C_b     0.18; C_c     0.18; C_d     0.09; C_e     0.17; C_f     0.16; C_g     0.24; C_h     0.03; C_i     0.27; C_j     0.18; 
@             C_k    -0.06; C_l     0.12; C_m    -0.09; C_n     0.22; C_o    -0.20; C_p     0.02; C_q    -0.32; C_r     0.29; C_s     0.15; C_t     0.20; 
@             C_u    -0.03; C_v     0.14; C_w     0.27; C_x    -0.01; N_a    -0.86; N_b     0.64; O_a    -1.21; O_b    -1.07; H_a    -0.09; H_b    -0.18; 
@    MULPOP    dipole moment & components:     10.6902;       -4.7963      9.5539      0.0000
   5  Level shift: doubly occupied orbital energies shifted by -1.25D-02
 -----------------------------------------------------------------------------
   6  Screening settings (-IFTHRS, JTDIIS, DIFDEN, times)  -14    6    T  2.17D+02  2.18D+02
@  6    -1182.70903099        7.12590D-02   -4.63D-03    6
      Virial theorem: -V/T =      2.002631
@    MULPOP   C_a     0.21; C_b     0.17; C_c     0.18; C_d     0.09; C_e     0.15; C_f     0.16; C_g     0.22; C_h     0.03; C_i     0.26; C_j     0.17; 
@             C_k    -0.07; C_l     0.11; C_m    -0.09; C_n     0.21; C_o    -0.20; C_p     0.03; C_q    -0.32; C_r     0.31; C_s     0.15; C_t     0.20; 
@             C_u    -0.04; C_v     0.14; C_w     0.26; C_x    -0.02; N_a    -0.87; N_b     0.62; O_a    -1.19; O_b    -1.06; H_a    -0.08; H_b    -0.17; 
@    MULPOP    dipole moment & components:     10.2172;       -4.6053      9.1205      0.0000
   6  Level shift: doubly occupied orbital energies shifted by -1.25D-02
 -----------------------------------------------------------------------------
   7  Screening settings (-IFTHRS, JTDIIS, DIFDEN, times)  -14    7    T  2.15D+02  2.16D+02
@  7    -1182.71062577        3.45456D-02   -1.59D-03    7
      Virial theorem: -V/T =      2.002663
@    MULPOP   C_a     0.20; C_b     0.17; C_c     0.17; C_d     0.09; C_e     0.15; C_f     0.16; C_g     0.22; C_h     0.03; C_i     0.26; C_j     0.16; 
@             C_k    -0.07; C_l     0.11; C_m    -0.08; C_n     0.21; C_o    -0.19; C_p     0.03; C_q    -0.31; C_r     0.31; C_s     0.15; C_t     0.19; 
@             C_u    -0.04; C_v     0.14; C_w     0.25; C_x    -0.03; N_a    -0.88; N_b     0.63; O_a    -1.19; O_b    -1.06; H_a    -0.08; H_b    -0.17; 
@    MULPOP    dipole moment & components:      9.8810;       -4.4554      8.8195      0.0000
 -----------------------------------------------------------------------------
   8  Screening settings (-IFTHRS, JTDIIS, DIFDEN, times)  -14    8    T  2.15D+02  2.16D+02
@  8    -1182.71103906        1.53605D-02   -4.13D-04    8
      Virial theorem: -V/T =      2.002656
@    MULPOP   C_a     0.20; C_b     0.17; C_c     0.17; C_d     0.08; C_e     0.15; C_f     0.16; C_g     0.22; C_h     0.02; C_i     0.26; C_j     0.16; 
@             C_k    -0.06; C_l     0.11; C_m    -0.08; C_n     0.21; C_o    -0.19; C_p     0.03; C_q    -0.31; C_r     0.31; C_s     0.15; C_t     0.19; 
@             C_u    -0.04; C_v     0.14; C_w     0.25; C_x    -0.02; N_a    -0.88; N_b     0.64; O_a    -1.19; O_b    -1.06; H_a    -0.08; H_b    -0.17; 
@    MULPOP    dipole moment & components:      9.6000;       -4.3773      8.5440      0.0000
 -----------------------------------------------------------------------------
   9  Screening settings (-IFTHRS, JTDIIS, DIFDEN, times)  -14    9    T  2.13D+02  2.14D+02
@  9    -1182.71109759        6.18496D-03   -5.85D-05    8
      Virial theorem: -V/T =      2.002648
@    MULPOP   C_a     0.20; C_b     0.16; C_c     0.17; C_d     0.08; C_e     0.15; C_f     0.15; C_g     0.22; C_h     0.02; C_i     0.26; C_j     0.16; 
@             C_k    -0.06; C_l     0.11; C_m    -0.08; C_n     0.21; C_o    -0.19; C_p     0.03; C_q    -0.31; C_r     0.31; C_s     0.15; C_t     0.19; 
@             C_u    -0.04; C_v     0.14; C_w     0.25; C_x    -0.02; N_a    -0.88; N_b     0.63; O_a    -1.19; O_b    -1.06; H_a    -0.08; H_b    -0.17; 
@    MULPOP    dipole moment & components:      9.4658;       -4.3426      8.4109      0.0000
 -----------------------------------------------------------------------------
  10  Screening settings (-IFTHRS, JTDIIS, DIFDEN, times)  -14   10    T  2.12D+02  2.13D+02
@ 10    -1182.71111387        3.72262D-03   -1.63D-05    8
      Virial theorem: -V/T =      2.002648
@    MULPOP   C_a     0.20; C_b     0.16; C_c     0.17; C_d     0.08; C_e     0.15; C_f     0.15; C_g     0.22; C_h     0.02; C_i     0.26; C_j     0.16; 
@             C_k    -0.06; C_l     0.11; C_m    -0.08; C_n     0.21; C_o    -0.19; C_p     0.04; C_q    -0.31; C_r     0.31; C_s     0.15; C_t     0.19; 
@             C_u    -0.04; C_v     0.14; C_w     0.25; C_x    -0.02; N_a    -0.88; N_b     0.63; O_a    -1.19; O_b    -1.06; H_a    -0.08; H_b    -0.17; 
@    MULPOP    dipole moment & components:      9.3630;       -4.3267      8.3034      0.0000
 -----------------------------------------------------------------------------
  11  Screening settings (-IFTHRS, JTDIIS, DIFDEN, times)  -14   11    T  2.11D+02  2.11D+02
@ 11    -1182.71112111        2.33087D-03   -7.24D-06    8
      Virial theorem: -V/T =      2.002649
@    MULPOP   C_a     0.20; C_b     0.16; C_c     0.17; C_d     0.08; C_e     0.15; C_f     0.15; C_g     0.22; C_h     0.02; C_i     0.26; C_j     0.16; 
@             C_k    -0.06; C_l     0.11; C_m    -0.08; C_n     0.21; C_o    -0.19; C_p     0.04; C_q    -0.31; C_r     0.31; C_s     0.15; C_t     0.19; 
@             C_u    -0.04; C_v     0.14; C_w     0.24; C_x    -0.03; N_a    -0.88; N_b     0.63; O_a    -1.19; O_b    -1.06; H_a    -0.08; H_b    -0.17; 
@    MULPOP    dipole moment & components:      9.2856;       -4.3164      8.2214      0.0000
 -----------------------------------------------------------------------------
  12  Screening settings (-IFTHRS, JTDIIS, DIFDEN, times)  -14   12    T  2.10D+02  2.10D+02
@ 12    -1182.71112432        8.79600D-04   -3.21D-06    8
      Virial theorem: -V/T =      2.002648
@    MULPOP   C_a     0.20; C_b     0.16; C_c     0.17; C_d     0.08; C_e     0.15; C_f     0.15; C_g     0.22; C_h     0.02; C_i     0.26; C_j     0.16; 
@             C_k    -0.06; C_l     0.11; C_m    -0.08; C_n     0.21; C_o    -0.19; C_p     0.04; C_q    -0.31; C_r     0.31; C_s     0.15; C_t     0.19; 
@             C_u    -0.04; C_v     0.14; C_w     0.24; C_x    -0.03; N_a    -0.88; N_b     0.63; O_a    -1.19; O_b    -1.05; H_a    -0.08; H_b    -0.17; 
@    MULPOP    dipole moment & components:      9.2159;       -4.3079      8.1470      0.0000
 -----------------------------------------------------------------------------
  13  Screening settings (-IFTHRS, JTDIIS, DIFDEN, times)  -14   13    T  2.05D+02  2.06D+02
@ 13    -1182.71112476        3.71585D-04   -4.40D-07    8
      Virial theorem: -V/T =      2.002648
@    MULPOP   C_a     0.20; C_b     0.16; C_c     0.17; C_d     0.08; C_e     0.15; C_f     0.15; C_g     0.22; C_h     0.02; C_i     0.26; C_j     0.16; 
@             C_k    -0.06; C_l     0.11; C_m    -0.08; C_n     0.21; C_o    -0.19; C_p     0.03; C_q    -0.31; C_r     0.31; C_s     0.15; C_t     0.19; 
@             C_u    -0.04; C_v     0.14; C_w     0.24; C_x    -0.02; N_a    -0.88; N_b     0.63; O_a    -1.19; O_b    -1.05; H_a    -0.08; H_b    -0.17; 
@    MULPOP    dipole moment & components:      9.1890;       -4.3050      8.1182      0.0000
 -----------------------------------------------------------------------------
  14  Screening settings (-IFTHRS, JTDIIS, DIFDEN, times)  -14   14    T  2.06D+02  2.06D+02
@ 14    -1182.71112480        1.85357D-04   -4.04D-08    8
      Virial theorem: -V/T =      2.002648
@    MULPOP   C_a     0.20; C_b     0.16; C_c     0.17; C_d     0.08; C_e     0.15; C_f     0.15; C_g     0.22; C_h     0.02; C_i     0.26; C_j     0.16; 
@             C_k    -0.06; C_l     0.11; C_m    -0.08; C_n     0.21; C_o    -0.19; C_p     0.03; C_q    -0.31; C_r     0.31; C_s     0.15; C_t     0.19; 
@             C_u    -0.04; C_v     0.14; C_w     0.24; C_x    -0.02; N_a    -0.88; N_b     0.63; O_a    -1.19; O_b    -1.05; H_a    -0.08; H_b    -0.17; 
@    MULPOP    dipole moment & components:      9.1838;       -4.3047      8.1124      0.0000
 -----------------------------------------------------------------------------
  15  Screening settings (-IFTHRS, JTDIIS, DIFDEN, times)  -14   15    T  2.05D+02  2.06D+02
@ 15    -1182.71112481        8.32851D-05   -8.83D-09    8
      Virial theorem: -V/T =      2.002648
@    MULPOP   C_a     0.20; C_b     0.16; C_c     0.17; C_d     0.08; C_e     0.15; C_f     0.15; C_g     0.22; C_h     0.02; C_i     0.26; C_j     0.16; 
@             C_k    -0.06; C_l     0.11; C_m    -0.08; C_n     0.21; C_o    -0.19; C_p     0.03; C_q    -0.31; C_r     0.31; C_s     0.15; C_t     0.19; 
@             C_u    -0.04; C_v     0.14; C_w     0.24; C_x    -0.02; N_a    -0.88; N_b     0.63; O_a    -1.19; O_b    -1.05; H_a    -0.08; H_b    -0.17; 
@    MULPOP    dipole moment & components:      9.1817;       -4.3046      8.1101      0.0000
 -----------------------------------------------------------------------------
  16  Screening settings (-IFTHRS, JTDIIS, DIFDEN, times)  -14   16    T  2.02D+02  2.03D+02
@ 16    -1182.71112481        3.76908D-05   -1.37D-09    8
      Virial theorem: -V/T =      2.002648
@    MULPOP   C_a     0.20; C_b     0.16; C_c     0.17; C_d     0.08; C_e     0.15; C_f     0.15; C_g     0.22; C_h     0.02; C_i     0.26; C_j     0.16; 
@             C_k    -0.06; C_l     0.11; C_m    -0.08; C_n     0.21; C_o    -0.19; C_p     0.03; C_q    -0.31; C_r     0.31; C_s     0.15; C_t     0.19; 
@             C_u    -0.04; C_v     0.14; C_w     0.24; C_x    -0.02; N_a    -0.88; N_b     0.63; O_a    -1.19; O_b    -1.05; H_a    -0.08; H_b    -0.17; 
@    MULPOP    dipole moment & components:      9.1813;       -4.3046      8.1097      0.0000
 -----------------------------------------------------------------------------
  17  Screening settings (-IFTHRS, JTDIIS, DIFDEN, times)  -14   17    T  2.01D+02  2.02D+02
@ 17    -1182.71112481        2.49589D-05   -5.56D-10    8
      Virial theorem: -V/T =      2.002648
@    MULPOP   C_a     0.20; C_b     0.16; C_c     0.17; C_d     0.08; C_e     0.15; C_f     0.15; C_g     0.22; C_h     0.02; C_i     0.26; C_j     0.16; 
@             C_k    -0.06; C_l     0.11; C_m    -0.08; C_n     0.21; C_o    -0.19; C_p     0.03; C_q    -0.31; C_r     0.31; C_s     0.15; C_t     0.19; 
@             C_u    -0.04; C_v     0.14; C_w     0.24; C_x    -0.02; N_a    -0.88; N_b     0.64; O_a    -1.19; O_b    -1.05; H_a    -0.08; H_b    -0.17; 
@    MULPOP    dipole moment & components:      9.1811;       -4.3046      8.1095      0.0000
 -----------------------------------------------------------------------------
  18  Screening settings (-IFTHRS, JTDIIS, DIFDEN, times)  -14   18    T  2.00D+02  2.01D+02
@ 18    -1182.71112481        1.10317D-05   -3.07D-10    8
      Virial theorem: -V/T =      2.002648
@    MULPOP   C_a     0.20; C_b     0.16; C_c     0.17; C_d     0.08; C_e     0.15; C_f     0.15; C_g     0.22; C_h     0.02; C_i     0.26; C_j     0.16; 
@             C_k    -0.06; C_l     0.11; C_m    -0.08; C_n     0.21; C_o    -0.19; C_p     0.03; C_q    -0.31; C_r     0.31; C_s     0.15; C_t     0.19; 
@             C_u    -0.04; C_v     0.14; C_w     0.24; C_x    -0.02; N_a    -0.88; N_b     0.64; O_a    -1.19; O_b    -1.05; H_a    -0.08; H_b    -0.17; 
@    MULPOP    dipole moment & components:      9.1811;       -4.3046      8.1094      0.0000
 -----------------------------------------------------------------------------
  19  Screening settings (-IFTHRS, JTDIIS, DIFDEN, times)  -14   19    T  1.97D+02  1.98D+02
@ 19    -1182.71112481        5.44892D-06   -2.36D-10    8

@ *** DIIS converged in  19 iterations !
@     Converged SCF energy, gradient:  -1182.711124811529    5.45D-06
    - total time used in SIRFCK :              0.00 seconds


 *** SCF orbital energy analysis ***

 Only the 20 lowest virtual orbital energies printed in each symmetry.

 Number of electrons :  200
 Orbital occupations :  100

 Sym       Hartree-Fock orbital energies

1 A     -20.58756283   -20.58470655   -15.83798116   -15.59174469   -11.30179320
        -11.28985417   -11.28830311   -11.27867173   -11.27064660   -11.26479527
        -11.26021537   -11.26003951   -11.25648248   -11.25569563   -11.25332732
        -11.25297716   -11.25171756   -11.25059359   -11.25024588   -11.24829044
        -11.24750160   -11.24707010   -11.24464887   -11.24153662   -11.23795438
        -11.23366720   -11.22882855   -11.22634186    -1.57795974    -1.37584092
         -1.23661315    -1.14366706    -1.12900914    -1.11971656    -1.11101879
         -1.10041749    -1.08692121    -1.07066232    -1.05184101    -1.03062256
         -1.00716836    -0.98166501    -0.95469114    -0.93569017    -0.88995954
         -0.86077570    -0.83236348    -0.80765937    -0.79021137    -0.78454908
         -0.77601245    -0.77160634    -0.76466099    -0.76116544    -0.75133004
         -0.74923693    -0.73495752    -0.71655497    -0.71162838    -0.69581126
         -0.67992999    -0.67438401    -0.66841455    -0.65362231    -0.64932179
         -0.63251798    -0.62591351    -0.61335644    -0.60157432    -0.59430873
         -0.58192119    -0.56911156    -0.56669182    -0.55394727    -0.54719819
         -0.54277881    -0.53355228    -0.52994053    -0.52599571    -0.52433353
         -0.51974718    -0.51433035    -0.50909447    -0.50394568    -0.49967406
         -0.49703697    -0.48744063    -0.48053663    -0.47814876    -0.47634205
         -0.46205861    -0.44372026    -0.43895731    -0.42127415    -0.39501433
         -0.36504434    -0.33171261    -0.29581669    -0.25916700    -0.22494441
          0.00051301     0.00380215     0.00468883     0.00622080     0.00692693
          0.00789944     0.01063826     0.01177480     0.01308963     0.01446660
          0.01601463     0.01804815     0.01840480     0.01912161     0.02019365
          0.02184181     0.02205311     0.02316528     0.02437591     0.02462008

    E(LUMO) :     0.00051301 au (symmetry 1)
  - E(HOMO) :    -0.22494441 au (symmetry 1)
  ------------------------------------------
    gap     :     0.22545742 au

 --- Writing SIRIFC interface file

 CPU and wall time for SCF :    6271.615    6300.527


                       .-----------------------------------.
                       | --- Final results from SIRIUS --- |
                       `-----------------------------------'


@    Spin multiplicity:           1
@    Spatial symmetry:            1 ( irrep  A   in C1  )
@    Total charge of molecule:    0

@    Final HF energy:           -1182.711124811529                 
@    Nuclear repulsion:          1740.311733291155
@    Electronic energy:         -2923.022858102684

@    Final gradient norm:           0.000005448916

 
     Date and time (Linux)  : Sat May 31 10:11:44 2025
     Host name              : xm052                                   

File label for MO orbitals:  31May25   FOCKDIIS

 (Only coefficients > 0.0100 are printed.)

 Molecular orbitals for symmetry species 1  (A  )
 ------------------------------------------------

    Orbital        91       92       93       94       95       96       97
   9 C_a :2pz    0.1215  -0.0928  -0.0009   0.2224   0.1120  -0.1319  -0.2233
  15 C_a :2pz   -0.0126  -0.0037  -0.0028  -0.0187  -0.0170  -0.0095   0.0231
  18 C_a :2pz    0.0215  -0.0124  -0.0052   0.0957   0.0251  -0.0808  -0.2421
  21 C_a :2pz   -0.0073  -0.0078   0.0190   0.0122   0.0193  -0.0021  -0.0507
  28 C_a :3d1-  -0.0016  -0.0081   0.0008   0.0057  -0.0058  -0.0130  -0.0049
  33 C_a :3d1-   0.0033   0.0160   0.0138   0.0139  -0.0098   0.0009   0.0084
  35 C_a :3d1+  -0.0007  -0.0077  -0.0058  -0.0181  -0.0100   0.0044   0.0298
  38 C_a :3d1-  -0.0057   0.0616  -0.0355   0.0423   0.0361   0.0742  -0.0365
  40 C_a :3d1+   0.0082  -0.0105   0.0068  -0.0002  -0.0223  -0.0326  -0.0243
  57 C_a :4f2-  -0.0115  -0.0013   0.0029  -0.0100  -0.0115   0.0086   0.0214
  59 C_a :4f0   -0.0073   0.0036  -0.0011  -0.0145  -0.0070   0.0054   0.0165
  61 C_a :4f2+  -0.0039   0.0070  -0.0005  -0.0254  -0.0113   0.0093   0.0341
  71 C_b :2pz    0.0352  -0.1774   0.0110   0.1890  -0.0319  -0.2143  -0.1249
  77 C_b :2pz    0.0001   0.0147  -0.0059  -0.0125   0.0225   0.0167  -0.0031
  80 C_b :2pz    0.0061  -0.0362   0.0189   0.0844  -0.0369  -0.1282  -0.0995
  83 C_b :2pz   -0.0092  -0.0044  -0.0059   0.0122   0.0001  -0.0284  -0.0551
  90 C_b :3d1-  -0.0061  -0.0003   0.0005  -0.0092  -0.0098   0.0038   0.0160
  95 C_b :3d1-   0.0070   0.0050   0.0034   0.0152  -0.0043  -0.0021   0.0260
  97 C_b :3d1+  -0.0039  -0.0049  -0.0007   0.0069  -0.0097  -0.0233  -0.0191
 100 C_b :3d1-  -0.0080   0.0638   0.0142   0.0497   0.0208   0.0486  -0.0991
 102 C_b :3d1+   0.0081  -0.0147  -0.0209  -0.0342   0.0097  -0.0219   0.0358
 119 C_b :4f2-   0.0057   0.0115  -0.0036  -0.0120   0.0069   0.0154   0.0070
 121 C_b :4f0   -0.0024   0.0104  -0.0008  -0.0120   0.0051   0.0128   0.0070
 123 C_b :4f2+  -0.0070   0.0108   0.0013  -0.0184   0.0072   0.0280   0.0164
 133 C_c :2pz   -0.1006  -0.2194   0.0227   0.0195  -0.2156  -0.1080   0.1812
 139 C_c :2pz   -0.0051   0.0261   0.0054  -0.0088   0.0074   0.0262  -0.0003
 142 C_c :2pz   -0.0300  -0.0859  -0.0013  -0.0012  -0.0957  -0.0735   0.1437
 145 C_c :2pz    0.0145   0.0106  -0.0371  -0.0200  -0.0252  -0.0492   0.0260
 152 C_c :3d1-  -0.0065  -0.0037   0.0008  -0.0079  -0.0083   0.0069   0.0137
 157 C_c :3d1-   0.0010  -0.0054   0.0097   0.0171   0.0073   0.0255   0.0206
 159 C_c :3d1+  -0.0032   0.0097   0.0022  -0.0090   0.0119   0.0131  -0.0232
 162 C_c :3d1-  -0.0202   0.0192   0.0222   0.1013  -0.0289  -0.0013  -0.0940
 164 C_c :3d1+  -0.0008  -0.0328  -0.0149  -0.0230   0.0140   0.0078   0.0475
 181 C_c :4f2-  -0.0052   0.0113   0.0015  -0.0024   0.0143   0.0165  -0.0110
 183 C_c :4f0    0.0038   0.0153   0.0000  -0.0016   0.0120   0.0092  -0.0100
 185 C_c :4f2+   0.0099   0.0197  -0.0001  -0.0017   0.0221   0.0164  -0.0222
 195 C_d :2pz   -0.1713  -0.1724   0.0224  -0.1069  -0.2077   0.0490   0.2201
 201 C_d :2pz    0.0095   0.0173  -0.0026   0.0205   0.0041  -0.0188  -0.0238
 204 C_d :2pz   -0.0267  -0.0704  -0.0149  -0.0459  -0.0820   0.0290   0.2073
 207 C_d :2pz    0.0074  -0.0014   0.0254  -0.0130  -0.0113   0.0012   0.1210
 214 C_d :3d1-   0.0001   0.0082  -0.0006  -0.0053   0.0092   0.0105  -0.0092
 219 C_d :3d1-  -0.0096   0.0006   0.0147   0.0204  -0.0037   0.0324   0.0011
 221 C_d :3d1+   0.0023  -0.0052  -0.0037  -0.0149  -0.0121   0.0024   0.0323
 224 C_d :3d1-  -0.0210  -0.0037  -0.0108   0.0846  -0.0247  -0.0091  -0.0126
 226 C_d :3d1+   0.0114   0.0248   0.0141  -0.0108   0.0002   0.0033  -0.0165
 243 C_d :4f2-   0.0157   0.0044  -0.0041   0.0073   0.0116  -0.0103  -0.0201
 245 C_d :4f0    0.0090   0.0121  -0.0013   0.0077   0.0104  -0.0051  -0.0159
 247 C_d :4f2+   0.0061   0.0174   0.0010   0.0111   0.0212  -0.0070  -0.0334
 257 C_e :2pz   -0.2257  -0.0293   0.0112  -0.2246  -0.0251   0.2277  -0.0029
 263 C_e :2pz    0.0125   0.0071  -0.0086   0.0146   0.0168  -0.0167  -0.0207
 266 C_e :2pz   -0.0703   0.0234   0.0256  -0.0845  -0.0240   0.1432   0.0064
 269 C_e :2pz   -0.0088  -0.0035   0.0160   0.0127   0.0031   0.0583  -0.0057
 276 C_e :3d1-  -0.0052   0.0059  -0.0004  -0.0062   0.0091   0.0070  -0.0126
 281 C_e :3d1-  -0.0328  -0.0074   0.0082   0.0178  -0.0008   0.0081  -0.0371
 283 C_e :3d1+   0.0102   0.0015  -0.0050   0.0031   0.0097  -0.0281   0.0012
 286 C_e :3d1-  -0.0577  -0.0256   0.0223   0.0336  -0.0753   0.0402   0.0445
 288 C_e :3d1+  -0.0060   0.0148   0.0045  -0.0189   0.0096  -0.0112  -0.0225
 305 C_e :4f2-   0.0011   0.0073  -0.0002   0.0150   0.0058  -0.0151  -0.0077
 307 C_e :4f0    0.0123   0.0019  -0.0021   0.0136   0.0033  -0.0142  -0.0030
 309 C_e :4f2+   0.0210  -0.0032  -0.0025   0.0178   0.0052  -0.0317  -0.0040
 319 C_f :2pz   -0.2147   0.0798  -0.0005  -0.2024   0.1160   0.1764  -0.1529
 325 C_f :2pz    0.0116  -0.0124  -0.0007   0.0131  -0.0178  -0.0030   0.0351
 328 C_f :2pz   -0.0584   0.0313   0.0043  -0.0677   0.0253   0.1140  -0.1799
 331 C_f :2pz   -0.0043   0.0022  -0.0115   0.0027   0.0082   0.0307  -0.0873
 338 C_f :3d1-   0.0058   0.0048  -0.0008   0.0085   0.0061  -0.0127  -0.0044
 343 C_f :3d1-  -0.0405  -0.0104   0.0023   0.0117   0.0051   0.0022  -0.0273
 345 C_f :3d1+   0.0095   0.0088  -0.0016  -0.0104   0.0097   0.0167  -0.0240
 348 C_f :3d1-  -0.0765  -0.0108   0.0070   0.0362  -0.0736   0.0727   0.0029
 350 C_f :3d1+   0.0423  -0.0135  -0.0078  -0.0046   0.0275  -0.0271   0.0220
 367 C_f :4f2-   0.0168  -0.0111   0.0001   0.0048  -0.0102  -0.0136   0.0192
 369 C_f :4f0    0.0125  -0.0057  -0.0003   0.0118  -0.0072  -0.0100   0.0146
 371 C_f :4f2+   0.0119  -0.0047   0.0005   0.0205  -0.0109  -0.0207   0.0291
 381 C_g :2pz   -0.1439   0.2046  -0.0173  -0.0492   0.2284  -0.0797  -0.1810
 387 C_g :2pz    0.0053  -0.0063   0.0043   0.0174  -0.0199  -0.0070   0.0247
 390 C_g :2pz   -0.0315   0.0610  -0.0255  -0.0024   0.1107  -0.0275  -0.1585
 393 C_g :2pz   -0.0041  -0.0052   0.0080   0.0021   0.0175  -0.0176  -0.0278
 400 C_g :3d1-   0.0004   0.0073  -0.0008   0.0070   0.0049  -0.0127   0.0019
 405 C_g :3d1-  -0.0666   0.0061   0.0056   0.0101  -0.0046  -0.0029   0.0256
 407 C_g :3d1+   0.0187  -0.0030   0.0018   0.0031  -0.0170   0.0029   0.0215
 410 C_g :3d1-  -0.1069   0.0215   0.0082  -0.0080  -0.0230   0.1059  -0.0873
 412 C_g :3d1+   0.0208   0.0040  -0.0086  -0.0024   0.0165  -0.0210   0.0194
 429 C_g :4f2-  -0.0018  -0.0038   0.0024   0.0127  -0.0154   0.0057   0.0195
 431 C_g :4f0    0.0069  -0.0110   0.0019   0.0047  -0.0146   0.0036   0.0134
 433 C_g :4f2+   0.0143  -0.0187   0.0036   0.0010  -0.0244   0.0065   0.0288
 443 C_h :2pz   -0.0659   0.2272  -0.0230   0.0789   0.1702  -0.1959  -0.0344
 449 C_h :2pz    0.0005  -0.0176   0.0018  -0.0142  -0.0080   0.0250  -0.0265
 452 C_h :2pz    0.0001   0.0447   0.0009  -0.0117   0.1062  -0.1539   0.0258
 455 C_h :2pz    0.0022   0.0038  -0.0225  -0.0022   0.0031  -0.0401  -0.0120
 462 C_h :3d1-   0.0057  -0.0048   0.0003   0.0065  -0.0112  -0.0001   0.0147
 467 C_h :3d1-  -0.0781   0.0199   0.0074   0.0155  -0.0092   0.0030   0.0241
 469 C_h :3d1+   0.0182   0.0010  -0.0040   0.0033   0.0136  -0.0264   0.0011
 472 C_h :3d1-  -0.1133   0.0313   0.0152   0.0016  -0.0182   0.0840  -0.1159
 474 C_h :3d1+   0.0283  -0.0118   0.0041   0.0022  -0.0171  -0.0116   0.0167
 491 C_h :4f2-   0.0122  -0.0152   0.0006  -0.0139  -0.0066   0.0144  -0.0037
 493 C_h :4f0    0.0040  -0.0139   0.0017  -0.0054  -0.0103   0.0135  -0.0032
 495 C_h :4f2+   0.0032  -0.0182   0.0030  -0.0038  -0.0185   0.0279  -0.0023
 505 C_i :2pz    0.0620   0.1715  -0.0215   0.2195  -0.0479  -0.1687   0.2235
 511 C_i :2pz   -0.0019  -0.0168  -0.0009  -0.0137  -0.0106   0.0209  -0.0120
 514 C_i :2pz    0.0151   0.0592  -0.0156   0.0974  -0.0339  -0.1070   0.1680
 517 C_i :2pz    0.0141   0.0061  -0.0071  -0.0166  -0.0141  -0.0392   0.0721
 524 C_i :3d1-   0.0051  -0.0005  -0.0001   0.0074  -0.0107   0.0031   0.0102
 529 C_i :3d1-  -0.0771   0.0334   0.0013   0.0174  -0.0106   0.0267  -0.0058
 531 C_i :3d1+   0.0272  -0.0163  -0.0007  -0.0143   0.0024   0.0136  -0.0232
 534 C_i :3d1-  -0.1063   0.0654  -0.0111   0.0300   0.0397  -0.0074  -0.0523
 536 C_i :3d1+   0.0265  -0.0013   0.0021   0.0112  -0.0082  -0.0032   0.0222
 553 C_i :4f2-  -0.0092  -0.0073   0.0019  -0.0037  -0.0042   0.0196  -0.0201
 555 C_i :4f0   -0.0028  -0.0111   0.0008  -0.0134   0.0013   0.0113  -0.0141
 557 C_i :4f2+   0.0050  -0.0178   0.0009  -0.0250   0.0074   0.0192  -0.0283
 567 C_j :2pz    0.1396   0.0815  -0.0133   0.2216  -0.1705  -0.0245   0.1971
 573 C_j :2pz   -0.0109   0.0025  -0.0009  -0.0149   0.0195  -0.0154  -0.0061
 576 C_j :2pz    0.0085   0.0549   0.0103   0.0946  -0.0960   0.0193   0.1241
 579 C_j :2pz   -0.0014  -0.0049   0.0395   0.0085  -0.0049   0.0212   0.0888
 586 C_j :3d1-   0.0007  -0.0077   0.0009  -0.0068  -0.0029   0.0130  -0.0133
 591 C_j :3d1-  -0.0820   0.0435  -0.0030   0.0267  -0.0172   0.0305  -0.0191
 593 C_j :3d1+   0.0135  -0.0077  -0.0001   0.0058  -0.0143  -0.0010   0.0249
 596 C_j :3d1-  -0.1027   0.0782   0.0015   0.0406   0.0110  -0.0085   0.0037
 598 C_j :3d1+   0.0316  -0.0397  -0.0076  -0.0380   0.0181  -0.0066   0.0004
 615 C_j :4f2-   0.0071  -0.0053   0.0007  -0.0153   0.0161  -0.0061  -0.0108
 617 C_j :4f0   -0.0064  -0.0047   0.0008  -0.0142   0.0114  -0.0019  -0.0101
 619 C_j :4f2+  -0.0086  -0.0086   0.0026  -0.0202   0.0188  -0.0005  -0.0248
 629 C_k :2pz    0.2233  -0.0786   0.0039   0.1028  -0.2202   0.2108  -0.0817
 635 C_k :2pz   -0.0087   0.0023   0.0031  -0.0183   0.0216  -0.0099  -0.0079
 638 C_k :2pz    0.0729  -0.0450  -0.0141   0.0300  -0.1170   0.1293  -0.0682
 641 C_k :2pz   -0.0166   0.0012  -0.0087   0.0241  -0.0055   0.0700  -0.0991
 648 C_k :3d1-   0.0054  -0.0068   0.0007  -0.0045  -0.0022   0.0104  -0.0142
 653 C_k :3d1-  -0.0619   0.0491  -0.0002   0.0343  -0.0115   0.0174  -0.0345
 655 C_k :3d1+   0.0279  -0.0176   0.0027  -0.0205   0.0229  -0.0261   0.0134
 658 C_k :3d1-  -0.0953   0.0996   0.0016   0.1181  -0.0780   0.0426   0.0085
 660 C_k :3d1+   0.0436  -0.0355  -0.0063  -0.0247   0.0077  -0.0084  -0.0075
 677 C_k :4f2-  -0.0143   0.0032   0.0009  -0.0053   0.0122  -0.0101   0.0003
 679 C_k :4f0   -0.0101   0.0042   0.0003  -0.0080   0.0146  -0.0130   0.0045
 681 C_k :4f2+   0.0001   0.0001   0.0012  -0.0161   0.0292  -0.0310   0.0124
 691 C_l :2pz    0.2431  -0.1672   0.0146  -0.0234  -0.1272   0.2166  -0.1984
 697 C_l :2pz   -0.0029   0.0130  -0.0038   0.0048   0.0038  -0.0177   0.0368
 700 C_l :2pz    0.0601  -0.0443   0.0075  -0.0146  -0.0406   0.1056  -0.1612
 703 C_l :2pz    0.0013   0.0017  -0.0270  -0.0056  -0.0031   0.0016  -0.0882
 710 C_l :3d1-  -0.0048  -0.0009   0.0003  -0.0080   0.0118  -0.0093   0.0005
 715 C_l :3d1-  -0.0511   0.0425   0.0002   0.0273  -0.0049   0.0069  -0.0163
 717 C_l :3d1+   0.0008  -0.0108   0.0005  -0.0073  -0.0060   0.0220  -0.0302
 720 C_l :3d1-  -0.0550   0.0697  -0.0102   0.0887  -0.0625   0.0556  -0.0300
 722 C_l :3d1+  -0.0100   0.0027   0.0051  -0.0093   0.0154  -0.0182   0.0195
 739 C_l :4f2-   0.0075   0.0012  -0.0014  -0.0002   0.0057  -0.0157   0.0180
 741 C_l :4f0   -0.0100   0.0100  -0.0012   0.0016   0.0063  -0.0124   0.0153
 743 C_l :4f2+  -0.0123   0.0118  -0.0009  -0.0004   0.0140  -0.0273   0.0350
 753 C_m :2pz    0.2282  -0.2393   0.0246  -0.1950   0.1021   0.0174  -0.1341
 759 C_m :2pz   -0.0165   0.0302  -0.0043   0.0257  -0.0147   0.0021   0.0053
 762 C_m :2pz    0.0687  -0.0931   0.0144  -0.1112   0.0847  -0.0125  -0.0799
 765 C_m :2pz    0.0134  -0.0067   0.0149  -0.0218   0.0174  -0.0599   0.0831
 777 C_m :3d1-  -0.0277   0.0358  -0.0039   0.0330  -0.0179   0.0006   0.0238
 779 C_m :3d1+   0.0105  -0.0001  -0.0005   0.0062  -0.0090   0.0021   0.0065
 782 C_m :3d1-  -0.0255   0.0313   0.0076   0.0623  -0.0879   0.1137  -0.1078
 784 C_m :3d1+   0.0153  -0.0231   0.0021  -0.0253   0.0272  -0.0198   0.0202
 801 C_m :4f2-  -0.0168   0.0187  -0.0018   0.0167  -0.0104   0.0046   0.0072
 803 C_m :4f0   -0.0091   0.0142  -0.0017   0.0126  -0.0070  -0.0005   0.0075
 805 C_m :4f2+  -0.0023   0.0141  -0.0016   0.0172  -0.0119  -0.0017   0.0179
 815 C_n :2pz    0.1775  -0.2186   0.0236  -0.2289   0.2000  -0.1325   0.0340
 821 C_n :2pz    0.0157  -0.0051   0.0023   0.0071  -0.0124   0.0232  -0.0358
 824 C_n :2pz    0.0056  -0.0209  -0.0065  -0.0257   0.0388  -0.0519   0.0371
 827 C_n :2pz    0.0017  -0.0008   0.0064  -0.0031   0.0062  -0.0078   0.0387
 834 C_n :3d1-  -0.0079   0.0083  -0.0009   0.0059  -0.0012  -0.0053   0.0120
 839 C_n :3d1-  -0.0363   0.0505  -0.0048   0.0548  -0.0432   0.0308  -0.0093
 841 C_n :3d1+  -0.0059  -0.0065  -0.0006  -0.0193   0.0237  -0.0261   0.0185
 844 C_n :3d1-  -0.0186   0.0178  -0.0009   0.0497  -0.0413   0.0788  -0.0972
 846 C_n :3d1+   0.0103  -0.0022  -0.0008  -0.0167   0.0098  -0.0241   0.0182
 867 C_n :4f2+  -0.0047   0.0141  -0.0002   0.0205  -0.0199   0.0202  -0.0143
 877 C_o :2pz    0.0713  -0.1141   0.0131  -0.1584   0.1977  -0.2277   0.2436
 883 C_o :2pz    0.0303  -0.0291   0.0032  -0.0247   0.0223  -0.0226   0.0215
 886 C_o :2pz   -0.0065  -0.0029   0.0018  -0.0410   0.0706  -0.1131   0.1377
 889 C_o :2pz   -0.0069   0.0048  -0.0071   0.0123  -0.0120   0.0280  -0.0374
 901 C_o :3d1-   0.0093   0.0008   0.0030   0.0139  -0.0163   0.0276  -0.0295
 903 C_o :3d1+   0.0170  -0.0166   0.0016  -0.0143   0.0090  -0.0044   0.0006
 906 C_o :3d1-  -0.0193   0.0072   0.0024   0.0251  -0.0284   0.0539  -0.0625
 908 C_o :3d1+  -0.0021  -0.0003  -0.0004  -0.0052   0.0096  -0.0135   0.0173
 925 C_o :4f2-   0.0026   0.0004   0.0006   0.0038  -0.0043   0.0086  -0.0112
 929 C_o :4f2+   0.0130  -0.0091   0.0010  -0.0020  -0.0043   0.0108  -0.0146
 939 C_p :2pz   -0.0243   0.0061  -0.0001  -0.0217   0.0559  -0.0940   0.1326
 945 C_p :2pz    0.0031  -0.0052  -0.0020  -0.0091   0.0065  -0.0131   0.0165
 948 C_p :2pz    0.0720  -0.0430  -0.0018  -0.0819   0.0585  -0.1126   0.1287
 958 C_p :3d1-  -0.0061   0.0092  -0.0011   0.0121  -0.0152   0.0177  -0.0198
 963 C_p :3d1-   0.0248  -0.0202   0.0024  -0.0123   0.0051   0.0037  -0.0114
 965 C_p :3d1+  -0.0101   0.0089   0.0000   0.0083  -0.0032   0.0006   0.0040
 968 C_p :3d1-  -0.0103   0.0050   0.0027   0.0104  -0.0020   0.0078  -0.0067
 970 C_p :3d1+  -0.0084   0.0064   0.0015   0.0109  -0.0112   0.0140  -0.0101
1001 C_q :2pz   -0.1647  -0.1902   0.0306   0.2168   0.2344   0.2423   0.2353
1007 C_q :2pz   -0.0205  -0.0139   0.0069   0.0282   0.0297   0.0419   0.0384
1010 C_q :2pz   -0.0514   0.1047   0.2355   0.0543  -0.0287   0.1030   0.0210
1013 C_q :2pz    0.0054   0.0012   0.0231  -0.0053  -0.0034  -0.0136  -0.0199
1025 C_q :3d1-  -0.0179  -0.0127   0.0229   0.0232   0.0199   0.0263   0.0187
1027 C_q :3d1+  -0.0088  -0.0078   0.0121   0.0090   0.0084   0.0074   0.0096
1030 C_q :3d1-  -0.0080   0.0108  -0.0263   0.0064  -0.0092   0.0095  -0.0085
1032 C_q :3d1+  -0.0022   0.0193  -0.0423  -0.0038  -0.0189  -0.0002  -0.0131
1049 C_q :4f2-  -0.0024  -0.0024  -0.0178  -0.0007  -0.0015  -0.0010  -0.0004
1063 C_r :2pz   -0.1896  -0.1977   0.0215   0.1950   0.1764   0.1442   0.1017
1069 C_r :2pz    0.0008   0.0002   0.0136   0.0009   0.0091   0.0060   0.0137
1072 C_r :2pz   -0.0715  -0.0991  -0.2027   0.0994   0.0923   0.0980   0.0514
1075 C_r :2pz    0.0175   0.0084  -0.0545  -0.0172  -0.0071  -0.0045   0.0332
1082 C_r :3d1-   0.0029   0.0053  -0.0009  -0.0083  -0.0117  -0.0149  -0.0173
1087 C_r :3d1-  -0.0392  -0.0328   0.0014   0.0438   0.0372   0.0397   0.0212
1089 C_r :3d1+   0.0165   0.0173   0.0151  -0.0122  -0.0132  -0.0109  -0.0155
1092 C_r :3d1-  -0.0276   0.0295  -0.0267   0.0261  -0.0044   0.0514   0.0198
1094 C_r :3d1+   0.0235  -0.0065  -0.0057  -0.0250  -0.0040  -0.0383  -0.0239
1111 C_r :4f2-   0.0097   0.0047  -0.0126  -0.0080  -0.0053  -0.0070  -0.0004
1115 C_r :4f2+   0.0017   0.0052   0.0343  -0.0031  -0.0003   0.0003   0.0078
1125 C_s :2pz   -0.1641  -0.1140   0.0217   0.0400  -0.0531  -0.1466  -0.2185
1131 C_s :2pz    0.0081   0.0141   0.0221  -0.0135  -0.0159  -0.0227  -0.0211
1134 C_s :2pz   -0.0739  -0.0686   0.1178   0.0594   0.0404  -0.0044  -0.0618
1137 C_s :2pz   -0.0106  -0.0101   0.0177   0.0172   0.0242   0.0430   0.0659
1144 C_s :3d1-  -0.0014   0.0022  -0.0002  -0.0066  -0.0103  -0.0126  -0.0122
1149 C_s :3d1-  -0.0449  -0.0314   0.0491   0.0244   0.0163   0.0016   0.0005
1151 C_s :3d1+   0.0158   0.0167   0.0040  -0.0141  -0.0091   0.0017   0.0105
1154 C_s :3d1-  -0.0750  -0.0049   0.1359   0.0832   0.0267   0.0921   0.0220
1156 C_s :3d1+   0.0173  -0.0124   0.0082  -0.0224   0.0039  -0.0283   0.0037
1173 C_s :4f2-   0.0001   0.0043   0.0033  -0.0006   0.0038   0.0099   0.0141
1177 C_s :4f2+   0.0137   0.0100   0.0079  -0.0060  -0.0003   0.0058   0.0150
1187 C_t :2pz   -0.0891  -0.0056   0.0121  -0.0863  -0.1662  -0.2094  -0.2032
1193 C_t :2pz   -0.0007  -0.0023  -0.0333   0.0219   0.0168   0.0270   0.0113
1196 C_t :2pz   -0.0101  -0.0289  -0.1334  -0.0592  -0.0975  -0.1934  -0.1977
1199 C_t :2pz   -0.0278  -0.0170   0.0551   0.0314   0.0146   0.0101  -0.0873
1206 C_t :3d1-   0.0070   0.0076  -0.0008  -0.0061  -0.0015   0.0056   0.0136
1211 C_t :3d1-  -0.0450  -0.0162   0.0327   0.0126  -0.0045  -0.0071  -0.0041
1213 C_t :3d1+   0.0158   0.0061  -0.0019  -0.0164  -0.0163  -0.0287  -0.0229
1216 C_t :3d1-  -0.0758  -0.0494  -0.1038   0.0758   0.0416   0.0457  -0.0186
1218 C_t :3d1+   0.0173   0.0181   0.0582  -0.0010   0.0044   0.0230   0.0390
1235 C_t :4f2-   0.0081  -0.0026  -0.0252   0.0057   0.0110   0.0175   0.0167
1237 C_t :4f0    0.0041  -0.0004  -0.0072   0.0079   0.0107   0.0147   0.0123
1239 C_t :4f2+   0.0003  -0.0014  -0.0043   0.0146   0.0213   0.0318   0.0267
1249 C_u :2pz    0.0576   0.1615  -0.0063  -0.2180  -0.1916  -0.0786   0.0817
[...]
2117 H_l :3d1-   0.0000   0.0000   0.0000  -0.0000   0.3327  -0.0000
2118 H_l :3d0   -0.0443  -0.0568   0.1339  -0.1133  -0.0000   0.1033
2119 H_l :3d1+   0.0000  -0.0000  -0.0000   0.0000  -0.1057   0.0000
2120 H_l :3d2+  -0.3024  -0.0722   0.2141  -0.0250  -0.0000   0.0573
2122 H_m :1s     0.0081   0.0087  -0.0206   0.0306   0.0000  -0.0007
2123 H_m :1s     0.0092   0.9597  -0.2192   0.8074   0.0000   0.1407
2124 H_m :1s     0.6096  -0.6185  -2.1052   0.7083  -0.0000  -3.1718
2125 H_m :1s     0.4171  -0.0378  -0.2021  -1.0043  -0.0000  -2.6737
2132 H_m :2px    0.0731   0.2226  -0.0873   0.1510   0.0000  -0.0435
2133 H_m :2py    0.1466  -0.0896  -0.0962  -0.0825   0.0000   0.0985
2134 H_m :2pz   -0.0000   0.0000   0.0000  -0.0000   0.0140  -0.0000
2135 H_m :2px    0.1581  -0.1267  -0.4340   0.2393  -0.0000  -0.6546
2136 H_m :2py   -0.0452  -0.2173   0.0244  -0.5942  -0.0000  -0.4097
2137 H_m :2pz    0.0000   0.0000   0.0000  -0.0000   1.3133  -0.0000
2143 H_m :3d2-   0.0100   0.0015  -0.0093   0.0040  -0.0000  -0.0019
2148 H_m :3d2-   0.3509   0.0036  -0.1641  -0.0628  -0.0000   0.1037
2149 H_m :3d1-  -0.0000  -0.0000  -0.0000   0.0000   0.1033   0.0000
2150 H_m :3d0   -0.0095   0.0465  -0.0535   0.0224  -0.0000  -0.0745
2151 H_m :3d1+   0.0000  -0.0000   0.0000  -0.0000  -0.0119  -0.0000
2152 H_m :3d2+  -0.1141   0.1093  -0.0517   0.1136   0.0000  -0.1699
2154 H_n :1s     0.0179   0.0114  -0.0056   0.0298  -0.0000   0.0380
2155 H_n :1s    -0.1757   0.5197   0.1815   0.4876   0.0000   1.3417
2156 H_n :1s    -0.0960  -0.9230   0.6703  -1.6613   0.0000   1.8138
2157 H_n :1s    -2.9982  -4.5284   3.3559 -10.5072   0.0000  -4.9122
2161 H_n :2px   -0.0054  -0.0058   0.0001  -0.0082   0.0000  -0.0120
2164 H_n :2px    0.1199  -0.0665  -0.0652  -0.1015   0.0000  -0.1923
2165 H_n :2py   -0.2847  -0.1706   0.1647  -0.2642  -0.0000  -0.0460
2166 H_n :2pz    0.0000   0.0000   0.0000  -0.0000  -0.0818  -0.0000
2167 H_n :2px    0.0675  -0.6296  -0.1332  -0.7889  -0.0000  -0.4617
2168 H_n :2py    0.6993   1.4843  -1.0021   2.2734   0.0000  -0.6642
2169 H_n :2pz   -0.0000   0.0000   0.0000   0.0000   3.0648  -0.0000
2180 H_n :3d2-   0.3714   0.1028  -0.2164   0.1453   0.0000   0.1220
2181 H_n :3d1-   0.0000   0.0000   0.0000  -0.0000   0.2875  -0.0000
2182 H_n :3d0   -0.0172  -0.1191  -0.0398  -0.1875   0.0000   0.0113
2183 H_n :3d1+  -0.0000  -0.0000  -0.0000   0.0000  -0.0532   0.0000
2184 H_n :3d2+  -0.2239  -0.2140   0.0444  -0.2722  -0.0000  -0.0008
2186 H_o :1s    -0.0338  -0.0133   0.0318  -0.0269   0.0000   0.0469
2187 H_o :1s    -0.0242   0.4382   0.3595   0.0808   0.0000   0.7773
2188 H_o :1s    -1.2947  -0.0781   0.3763   0.4491   0.0000  -0.5054
2189 H_o :1s    -0.8957   3.1888  -4.5465   7.2802   0.0000  -8.9488
2193 H_o :2px   -0.0149   0.0009   0.0152  -0.0049  -0.0000   0.0212
2196 H_o :2px    0.0395   0.1419   0.1026   0.0358   0.0000   0.2265
2197 H_o :2py    0.0176  -0.0870   0.0248  -0.1268  -0.0000   0.0264
2198 H_o :2pz    0.0000   0.0000  -0.0000  -0.0000  -0.1284  -0.0000
2199 H_o :2px    0.0133  -0.2136  -0.1621  -0.1698   0.0000   0.0685
2200 H_o :2py   -0.4672  -0.0077   1.2229  -0.7531  -0.0000   1.3562
2201 H_o :2pz   -0.0000  -0.0000  -0.0000   0.0000  -0.8473   0.0000
2212 H_o :3d2-   0.0715  -0.0073  -0.0423  -0.0633  -0.0000  -0.0017
2213 H_o :3d1-   0.0000  -0.0000  -0.0000   0.0000   0.0719   0.0000
2214 H_o :3d0   -0.1615   0.0250   0.0892   0.0197   0.0000  -0.0343
2215 H_o :3d1+   0.0000   0.0000  -0.0000  -0.0000  -0.0656  -0.0000
2216 H_o :3d2+  -0.2274   0.0516   0.1325   0.0496   0.0000  -0.0240
2218 H_p :1s    -0.0030  -0.0218  -0.0029  -0.0344  -0.0000   0.0116
2219 H_p :1s     0.2852  -0.0402  -0.3063  -0.1087  -0.0000   0.1645
2220 H_p :1s     2.5942   1.8875  -1.5821   4.6670   0.0000  -0.8255
2221 H_p :1s     4.8983   9.5367   1.6169  16.4259  -0.0000  14.4937
2228 H_p :2px    0.0377   0.0500   0.0101   0.0651  -0.0000  -0.0258
2229 H_p :2py   -0.2531   0.0767   0.3328  -0.1183   0.0000   0.2213
2230 H_p :2pz   -0.0000   0.0000  -0.0000   0.0000   0.0493   0.0000
2231 H_p :2px   -0.4367  -0.0253   0.7431  -0.5570  -0.0000   0.7052
2232 H_p :2py    1.1623   0.8614  -1.4725   1.7284   0.0000  -1.2635
2233 H_p :2pz    0.0000   0.0000  -0.0000  -0.0000  -2.0985  -0.0000
2244 H_p :3d2-   0.2798   0.1610  -0.1750   0.2997   0.0000   0.0235
2245 H_p :3d1-   0.0000   0.0000   0.0000  -0.0000   0.1209  -0.0000
2246 H_p :3d0    0.1779   0.1248  -0.0813   0.2034   0.0000   0.0537
2247 H_p :3d1+  -0.0000  -0.0000  -0.0000   0.0000  -0.0838   0.0000
2248 H_p :3d2+   0.1082   0.0636  -0.0557   0.1350   0.0000   0.0522
2250 H_q :1s     0.0151   0.0000  -0.0251  -0.0089  -0.0000  -0.0186
2251 H_q :1s     0.0030  -0.0448  -0.2006  -0.2480  -0.0000  -0.1253
2252 H_q :1s    -2.0747   0.1156   4.6637   0.1588  -0.0000   4.6266
2253 H_q :1s    -4.0032   1.0350   9.7879  -1.9702  -0.0000  15.1554
2260 H_q :2px   -0.0421  -0.0542  -0.0230  -0.1106   0.0000  -0.0335
2261 H_q :2py   -0.0486   0.0548   0.1053   0.0509   0.0000   0.1354
2262 H_q :2pz    0.0000  -0.0000  -0.0000   0.0000   0.1929   0.0000
2263 H_q :2px   -0.3342  -0.0921   0.6331  -0.1506   0.0000   0.5132
2264 H_q :2py    0.4565   0.0380  -0.3290  -0.0726   0.0000  -0.3401
2265 H_q :2pz    0.0000   0.0000   0.0000  -0.0000   1.1669  -0.0000
2274 H_q :3d1+   0.0000  -0.0000  -0.0000  -0.0000   0.0125   0.0000
2276 H_q :3d2-  -0.0325  -0.0034   0.0296  -0.0277  -0.0000   0.0054
2277 H_q :3d1-   0.0000  -0.0000  -0.0000   0.0000   0.1091   0.0000
2278 H_q :3d0    0.0351   0.0048  -0.0339   0.0279   0.0000  -0.0306
2279 H_q :3d1+  -0.0000  -0.0000  -0.0000   0.0000   0.1249   0.0000
2280 H_q :3d2+   0.0070  -0.0409  -0.0266  -0.0380   0.0000  -0.0552
2282 H_r :1s    -0.0171   0.0340   0.0238   0.0168  -0.0000   0.0335
2283 H_r :1s    -0.1908   0.3943   0.3344  -0.0104  -0.0000   0.4379
2284 H_r :1s     1.2451  -2.3993  -2.5696  -1.3397  -0.0000  -4.7845
2285 H_r :1s     1.7808  -7.8379  -8.8349  -8.5482   0.0000 -16.2306
2292 H_r :2px   -0.0782   0.0122   0.0565  -0.0043  -0.0000   0.0622
2293 H_r :2py    0.0299  -0.0745  -0.0793   0.0420  -0.0000  -0.1766
2294 H_r :2pz   -0.0000  -0.0000  -0.0000   0.0000   0.1135   0.0000
2295 H_r :2px    0.0033  -0.2418  -0.0696  -0.2329  -0.0000  -0.2340
2296 H_r :2py   -0.1943   0.5674   0.3835   0.4519  -0.0000   0.6154
2297 H_r :2pz    0.0000  -0.0000  -0.0000  -0.0000   0.8825   0.0000
2308 H_r :3d2-   0.0051  -0.0096  -0.0201  -0.0223   0.0000  -0.0470
2310 H_r :3d0   -0.0359  -0.0043   0.0063  -0.0137   0.0000  -0.0387
2311 H_r :3d1+   0.0000   0.0000  -0.0000   0.0000  -0.1020  -0.0000
2312 H_r :3d2+   0.0461   0.0361  -0.0194   0.0824  -0.0000  -0.0123
2314 H_s :1s     0.0059   0.0038   0.0110  -0.0122  -0.0000   0.0084
2315 H_s :1s     0.6168   0.4161   0.0750  -0.7863  -0.0000   0.3725
2316 H_s :1s     0.3523   1.6374   0.2402  -2.5369   0.0000   1.6009
2317 H_s :1s     0.8141  -1.4101   3.8476   1.7367  -0.0000 -10.4010
2324 H_s :2px    0.0121   0.0302  -0.0259  -0.1362  -0.0000   0.0569
2325 H_s :2py    0.2625   0.1544   0.0892  -0.1525   0.0000  -0.0655
2326 H_s :2pz   -0.0000   0.0000   0.0000   0.0000  -0.0732  -0.0000
2327 H_s :2px   -0.2237   0.4975  -0.5529  -1.0766   0.0000   1.2500
2328 H_s :2py    0.2162  -0.3891   0.7175   1.0165  -0.0000  -1.2007
2329 H_s :2pz    0.0000   0.0000   0.0000   0.0000   1.1396  -0.0000
2340 H_s :3d2-  -0.0036   0.0652   0.1409   0.1015  -0.0000  -0.0090
2341 H_s :3d1-  -0.0000  -0.0000  -0.0000   0.0000   0.0245   0.0000
2342 H_s :3d0   -0.0244   0.0206   0.0989   0.1206  -0.0000  -0.0132
2343 H_s :3d1+   0.0000   0.0000   0.0000  -0.0000  -0.0431  -0.0000
2344 H_s :3d2+  -0.0010   0.0190   0.0454   0.0516  -0.0000   0.0171
2346 H_t :1s     0.0188   0.0114  -0.0224  -0.0359  -0.0000   0.0207
2347 H_t :1s     0.2549   0.1145   0.0853  -0.3244   0.0000   0.5509
2348 H_t :1s     0.3869   0.5613  -1.0046  -0.6966  -0.0000  -0.5702
2349 H_t :1s    -0.7536  -0.8180  -1.9458   2.1722   0.0000   3.9522
2356 H_t :2px    0.0151   0.0024  -0.0473   0.0710   0.0000  -0.2180
2357 H_t :2py   -0.0678  -0.0881  -0.0117   0.2142  -0.0000   0.0478
2358 H_t :2pz    0.0000   0.0000   0.0000  -0.0000  -0.0663  -0.0000
2359 H_t :2px    0.5670   0.2051   0.5228  -0.4516   0.0000  -0.8602
2360 H_t :2py   -2.5150  -0.7641  -0.6656   2.3290  -0.0000   1.1425
2361 H_t :2pz   -0.0000  -0.0000  -0.0000   0.0000   1.0665   0.0000
2372 H_t :3d2-  -0.1776   0.0740  -0.0230  -0.1826  -0.0000   0.0706
2373 H_t :3d1-   0.0000   0.0000   0.0000  -0.0000  -0.0906  -0.0000
2374 H_t :3d0   -0.0102   0.0349  -0.1072  -0.0229   0.0000  -0.0264
2375 H_t :3d1+  -0.0000  -0.0000  -0.0000   0.0000   0.0384   0.0000
2376 H_t :3d2+   0.0224   0.0132  -0.1485   0.0246   0.0000  -0.0530
2378 H_u :1s    -0.0227   0.0055  -0.0059  -0.0176   0.0000  -0.0026
2379 H_u :1s    -0.4828  -0.7613   0.2446   0.4530  -0.0000  -0.4820
2380 H_u :1s     0.8177   0.6046   1.1636   0.1168  -0.0000  -0.6103
2381 H_u :1s     1.4453   0.5808   0.3765  -0.4778   0.0000   4.7187
2388 H_u :2px    0.0191  -0.1024  -0.0675   0.0484   0.0000  -0.1419
2389 H_u :2py    0.0767  -0.0386   0.3157   0.0949  -0.0000  -0.0511
2390 H_u :2pz   -0.0000  -0.0000  -0.0000   0.0000  -0.0941   0.0000
2391 H_u :2px   -0.0365   0.4203  -0.2754   0.2332   0.0000   0.1751
2392 H_u :2py    1.2265  -0.3984   1.8026   0.3698  -0.0000  -2.1702
2393 H_u :2pz   -0.0000  -0.0000  -0.0000   0.0000  -0.0243   0.0000
2404 H_u :3d2-  -0.0550  -0.0778   0.2472   0.1941   0.0000  -0.0839
2405 H_u :3d1-  -0.0000  -0.0000  -0.0000   0.0000   0.0793   0.0000
2406 H_u :3d0   -0.0099  -0.0737   0.0456   0.0277   0.0000  -0.0534
2407 H_u :3d1+   0.0000   0.0000   0.0000  -0.0000  -0.0691  -0.0000
2408 H_u :3d2+   0.1156  -0.0336  -0.1297  -0.1378   0.0000  -0.0723
2410 H_v :1s     0.0113   0.0112  -0.0019  -0.0116  -0.0000   0.0140
2411 H_v :1s     0.1296  -0.2696   0.1297  -0.0977  -0.0000   0.5995
2412 H_v :1s    -1.8347   0.1924  -0.9735   0.3428  -0.0000  -0.0838
2413 H_v :1s    -2.0079   0.4436  -2.4470   1.7787  -0.0000   2.6376
2420 H_v :2px    0.0137   0.1116  -0.0711  -0.1416   0.0000  -0.1214
2421 H_v :2py    0.1888  -0.0770   0.1233   0.3345   0.0000   0.0552
2423 H_v :2px    1.5073   0.3547   0.0659  -0.9926   0.0000   0.2482
2424 H_v :2py   -0.9261  -0.4490  -0.6722   0.6689   0.0000   0.6437
2425 H_v :2pz    0.0000   0.0000   0.0000  -0.0000  -0.5101  -0.0000
2436 H_v :3d2-  -0.2892  -0.0151   0.0996  -0.1687  -0.0000   0.1675
2437 H_v :3d1-   0.0000   0.0000   0.0000  -0.0000  -0.1821  -0.0000
2438 H_v :3d0   -0.0556   0.0077  -0.1008  -0.0792   0.0000   0.2047
2439 H_v :3d1+  -0.0000  -0.0000  -0.0000   0.0000   0.0355   0.0000
2440 H_v :3d2+   0.0009  -0.0102  -0.2506  -0.0004   0.0000   0.2551
2442 H_w :1s    -0.0139  -0.0059   0.0017  -0.0024  -0.0000   0.0020
2443 H_w :1s    -0.4693  -0.5462   0.2780   0.3045  -0.0000   0.0666
2444 H_w :1s     1.8347   0.4922   0.8597  -1.0261  -0.0000  -1.4824
2445 H_w :1s     1.1466  -0.6320   0.8503  -1.2777  -0.0000   1.7678
2452 H_w :2px    0.0699  -0.0016  -0.0776   0.0249   0.0000   0.0071
2453 H_w :2py   -0.3200  -0.2467   0.3663   0.2335  -0.0000   0.0198
2454 H_w :2pz    0.0000   0.0000   0.0000   0.0000  -0.0368  -0.0000
2455 H_w :2px    0.3551  -0.0987   0.0774  -0.2427  -0.0000  -0.6042
2456 H_w :2py    0.0891   0.2916   0.2837  -0.9253  -0.0000   0.4211
2457 H_w :2pz    0.0000   0.0000   0.0000   0.0000  -0.0874  -0.0000
2467 H_w :3d2+   0.0126   0.0011   0.0007   0.0014  -0.0000   0.0003
2468 H_w :3d2-  -0.0277  -0.1607   0.4148   0.1792   0.0000  -0.2060
2469 H_w :3d1-   0.0000  -0.0000  -0.0000   0.0000   0.1440   0.0000
2470 H_w :3d0    0.0914  -0.0205   0.0831  -0.0564   0.0000  -0.0855
2471 H_w :3d1+  -0.0000   0.0000   0.0000  -0.0000  -0.0573  -0.0000
2472 H_w :3d2+   0.2297   0.0856  -0.1180  -0.2116   0.0000  -0.0217
2474 H_x :1s    -0.0161  -0.0077  -0.0131   0.0186   0.0000  -0.0218
2475 H_x :1s    -0.1522  -0.4928  -0.1796   0.4191  -0.0000   0.2025
2476 H_x :1s    -2.3292   0.0551  -1.9398   0.7956  -0.0000   0.1468
2477 H_x :1s    -0.3573  -1.6323   1.0638  -1.3673   0.0000  -2.4283
2482 H_x :2py    0.0101   0.0041   0.0011  -0.0009  -0.0000  -0.0006
2484 H_x :2px   -0.0383   0.1625  -0.0520  -0.1340   0.0000  -0.0015
2485 H_x :2py    0.3132  -0.0696   0.1040   0.2618  -0.0000  -0.1209
2486 H_x :2pz   -0.0000  -0.0000   0.0000  -0.0000  -0.1007   0.0000
2487 H_x :2px   -0.1643  -0.1384   0.6467   0.3054  -0.0000  -0.3509
2488 H_x :2py    0.7069   0.3495   0.3164   0.9562   0.0000   0.0256
2489 H_x :2pz   -0.0000  -0.0000  -0.0000   0.0000   0.5515   0.0000
2495 H_x :3d2-  -0.0126  -0.0053  -0.0004   0.0016   0.0000   0.0032
2500 H_x :3d2-  -0.2630  -0.0907   0.2968  -0.0778  -0.0000  -0.0856
2501 H_x :3d1-   0.0000   0.0000   0.0000  -0.0000  -0.1970  -0.0000
2502 H_x :3d0   -0.0936  -0.0426  -0.0317   0.1405   0.0000   0.0437
2503 H_x :3d1+  -0.0000  -0.0000  -0.0000   0.0000   0.1029   0.0000
2504 H_x :3d2+  -0.0759  -0.0667  -0.2127   0.2636   0.0000   0.1343
2506 H_y :1s    -0.0041  -0.0061   0.0122  -0.0046  -0.0000   0.0093
2507 H_y :1s    -0.5660  -0.5496   0.1036   0.2827  -0.0000   0.1712
2508 H_y :1s     2.0331   1.1288   1.1630  -1.5008  -0.0000   0.4490
2509 H_y :1s     1.2998  -0.8060   1.8479   0.4829  -0.0000  -3.2253
2516 H_y :2px    0.0941  -0.0180  -0.1816   0.0831  -0.0000   0.0480
2517 H_y :2py   -0.4893  -0.2842   0.3418   0.1726  -0.0000  -0.0040
2518 H_y :2pz    0.0000  -0.0000  -0.0000  -0.0000  -0.0213   0.0000
2519 H_y :2px    0.1699   0.3630  -0.2099  -0.4724  -0.0000   0.1354
2520 H_y :2py   -0.2569  -0.1332   0.3181   1.1778   0.0000   0.5671
2521 H_y :2pz    0.0000  -0.0000  -0.0000  -0.0000   0.5812   0.0000
2531 H_y :3d2+   0.0122  -0.0004   0.0007   0.0028  -0.0000   0.0034
2532 H_y :3d2-  -0.0909  -0.0897   0.5365  -0.0047   0.0000  -0.1553
2533 H_y :3d1-   0.0000  -0.0000  -0.0000   0.0000   0.0622   0.0000
2534 H_y :3d0   -0.0316   0.0300   0.1047  -0.1056   0.0000   0.0204
2536 H_y :3d2+   0.0557   0.1079  -0.2142  -0.1116   0.0000   0.1377
2538 H_z :1s    -0.0176  -0.0060  -0.0057   0.0029  -0.0000   0.0065
2539 H_z :1s     0.0950  -0.4980  -0.1572   0.0010  -0.0000   0.1591
2540 H_z :1s    -1.7347   0.4869  -0.4774   0.7883  -0.0000  -0.8981
2541 H_z :1s    -0.9372  -1.1776  -0.1844   1.4116  -0.0000  -0.9732
2546 H_z :2py    0.0102   0.0055  -0.0066  -0.0028  -0.0000  -0.0016
2548 H_z :2px   -0.1050   0.1388   0.0145  -0.0125   0.0000  -0.0976
2549 H_z :2py    0.3230  -0.1421  -0.1210   0.2479   0.0000  -0.0168
2550 H_z :2pz   -0.0000  -0.0000   0.0000   0.0000  -0.0486   0.0000
2551 H_z :2px    0.3946  -0.2816  -0.3647  -0.6929   0.0000   0.2838
2552 H_z :2py    0.1798  -0.4471   0.7224   0.0119  -0.0000  -1.2063
2553 H_z :2pz    0.0000   0.0000   0.0000   0.0000   0.1591  -0.0000
2559 H_z :3d2-  -0.0107  -0.0060   0.0074   0.0021   0.0000   0.0017
2564 H_z :3d2-  -0.1559  -0.0395   0.4355  -0.3050  -0.0000  -0.1243
2565 H_z :3d1-  -0.0000   0.0000   0.0000  -0.0000  -0.1199  -0.0000
2566 H_z :3d0    0.0641   0.0274  -0.0010   0.0070   0.0000  -0.0982
2567 H_z :3d1+   0.0000  -0.0000  -0.0000   0.0000   0.0631   0.0000
2568 H_z :3d2+   0.1415   0.0584  -0.2370   0.1899   0.0000  -0.0285

  Total CPU  time used in SIRIUS :   2 hours  2 minutes  1 second 
  Total wall time used in SIRIUS :   2 hours  2 minutes 36 seconds

 
     Date and time (Linux)  : Sat May 31 10:11:53 2025
     Host name              : xm052                                   

 NOTE:    1 warnings have been issued.
 Check output, result, and error files for "WARNING".


                     .---------------------------------------.
                     | End of Wave Function Section (SIRIUS) |
                     `---------------------------------------'



                 .------------------------------------------------.
                 | Starting in Dynamic Property Section (RESPONS) |
                 `------------------------------------------------'


 ----------------------------------------------------------------------------------------
  RESPONSE  -  an MCSCF, MC-srDFT, DFT, SOPPA and SOPPA-srDFT response property program
 ----------------------------------------------------------------------------------------


 -------- OUTPUT FROM RESPONSE INPUT PROCESSING --------




 Quadratic Response calculation
 ------------------------------

 First hyperpolarizability calculation : HYPCAL= T

 Spin of operator A , ISPINA=    0
 Spin of operator B , ISPINB=    0
 Spin of operator C , ISPINC=    0

  2 B-frequencies  0.000000D+00  1.600000D-02
  2 C-frequencies  0.000000D+00  1.600000D-02


 Print level                                    : IPRHYP =   2
 Maximum number of iterations in lin.rsp. solver: MAXITL =  60
 Threshold for convergence of linear resp. eq.s : THCLR  = 1.000D-03
 Maximum iterations in optimal orbital algorithm: MAXITO =   5
 Direct one-index transformation                : DIROIT = T

    3 A OPERATORS OF SYMMETRY NO:    1 AND LABELS:

          XDIPLEN 
          YDIPLEN 
          ZDIPLEN 

    3 B OPERATORS OF SYMMETRY NO:    1 AND LABELS:

          XDIPLEN 
          YDIPLEN 
          ZDIPLEN 

    3 C OPERATORS OF SYMMETRY NO:    1 AND LABELS:

          XDIPLEN 
          YDIPLEN 
          ZDIPLEN 


   SCF energy         :    -1182.711124811529089
 -- inactive part     :    -2923.022858102684040
 -- nuclear repulsion :     1740.311733291154951


                     ***************************************
                     *** RHF response calculation (TDHF) ***
                     ***************************************



 Linear response calculations for quadratic response
 - singlet property operator of symmetry    1  ( A  )


 Perturbation symmetry.     KSYMOP:           1
 Perturbation spin symmetry.TRPLET:           F
 Orbital variables.         KZWOPT:      228300
 Configuration variables.   KZCONF:           0
 Total number of variables. KZVAR :      228300


 QRLRVE -- linear response calculation for symmetry  1  ( A  )
 QRLRVE -- operator label : XDIPLEN 
 QRLRVE -- operator spin  :   0
 QRLRVE -- frequencies :  0.000000  0.016000  0.032000



 ---  SOLVING SETS OF LINEAR EQUATIONS FOR LINEAR RESPONSE PROPERTIES ---

 Operator symmetry = 1  ( A  ); triplet =   F


 ** RSPCTL MICROITERATION NUMBER    1

 MEMGET ERROR, insufficient free space for next allocation
               ( Need:  19783886, available (LFREE):  14662560 )


 QTRACE dump of internal trace stack

 ========================
      level    module
 ========================
         15    MEMGET2     
         14    HER_PARDRV  
         13    PARDRV      
         12    HERFCK_1    
         11    HERFCK      
         10    SIRFCK      
          9    RSPOLI      
          8    RSPELI      
          7    RSPCTL      
          6    QRLRVE      
          5    QRVEC       
          4    QRCALC      
          3    RSPDRV      
          2    DALTON      
          1    DALTON main 
 ========================


  --- SEVERE ERROR, PROGRAM WILL BE ABORTED ---
     Date and time (Linux)  : Sat May 31 10:12:07 2025
     Host name              : xm052                                   

@ MPI MASTER, node no.:     0
@ Reason: MEMGET ERROR, insufficient work space in memory

  Total CPU  time used in DALTON:   2 hours  3 minutes  8 seconds
  Total wall time used in DALTON:   2 hours  3 minutes 43 seconds


 QTRACE dump of internal trace stack

 ========================
      level    module
 ========================
         15    MEMGET2     
         14    HER_PARDRV  
         13    PARDRV      
         12    HERFCK_1    
         11    HERFCK      
         10    SIRFCK      
          9    RSPOLI      
          8    RSPELI      
          7    RSPCTL      
          6    QRLRVE      
          5    QRVEC       
          4    QRCALC      
          3    RSPDRV      
          2    DALTON      
          1    DALTON main 
 ========================

