

     ************************************************************************
     *************** Dalton - An Electronic Structure Program ***************
     ************************************************************************

    This is output from DALTON release Dalton2020.0 (2020)
         ( Web site: http://daltonprogram.org )

   ----------------------------------------------------------------------------

    NOTE:
     
    Dalton is an experimental code for the evaluation of molecular
    properties using (MC)SCF, DFT, CI, and CC wave functions.
    The authors accept no responsibility for the performance of
    the code or for the correctness of the results.
     
    The code (in whole or part) is provided under a licence and
    is not to be reproduced for further distribution without
    the written permission of the authors or their representatives.
     
    See the home page "http://daltonprogram.org" for further information.
     
    If results obtained with this code are published,
    the appropriate citations would be both of:
     
       K. Aidas, C. Angeli, K. L. Bak, V. Bakken, R. Bast,
       L. Boman, O. Christiansen, R. Cimiraglia, S. Coriani,
       P. Dahle, E. K. Dalskov, U. Ekstroem,
       T. Enevoldsen, J. J. Eriksen, P. Ettenhuber, B. Fernandez,
       L. Ferrighi, H. Fliegl, L. Frediani, K. Hald, A. Halkier,
       C. Haettig, H. Heiberg, T. Helgaker, A. C. Hennum,
       H. Hettema, E. Hjertenaes, S. Hoest, I.-M. Hoeyvik,
       M. F. Iozzi, B. Jansik, H. J. Aa. Jensen, D. Jonsson,
       P. Joergensen, J. Kauczor, S. Kirpekar,
       T. Kjaergaard, W. Klopper, S. Knecht, R. Kobayashi, H. Koch,
       J. Kongsted, A. Krapp, K. Kristensen, A. Ligabue,
       O. B. Lutnaes, J. I. Melo, K. V. Mikkelsen, R. H. Myhre,
       C. Neiss, C. B. Nielsen, P. Norman, J. Olsen,
       J. M. H. Olsen, A. Osted, M. J. Packer, F. Pawlowski,
       T. B. Pedersen, P. F. Provasi, S. Reine, Z. Rinkevicius,
       T. A. Ruden, K. Ruud, V. Rybkin, P. Salek, C. C. M. Samson,
       A. Sanchez de Meras, T. Saue, S. P. A. Sauer,
       B. Schimmelpfennig, K. Sneskov, A. H. Steindal,
       K. O. Sylvester-Hvid, P. R. Taylor, A. M. Teale,
       E. I. Tellgren, D. P. Tew, A. J. Thorvaldsen, L. Thoegersen,
       O. Vahtras, M. A. Watson, D. J. D. Wilson, M. Ziolkowski
       and H. Agren,
       "The Dalton quantum chemistry program system",
       WIREs Comput. Mol. Sci. 2014, 4:269–284 (doi: 10.1002/wcms.1172)
     
    and
     
       Dalton, a molecular electronic structure program,
       Release Dalton2020.0 (2020), see http://daltonprogram.org
   ----------------------------------------------------------------------------

    Authors in alphabetical order (Major contribution(s) in parenthesis):

  Kestutis Aidas,           Vilnius University,           Lithuania   (QM/MM)
  Celestino Angeli,         University of Ferrara,        Italy       (NEVPT2)
  Keld L. Bak,              UNI-C,                        Denmark     (AOSOPPA, non-adiabatic coupling, magnetic properties)
  Vebjoern Bakken,          University of Oslo,           Norway      (DALTON; geometry optimizer, symmetry detection)
  Radovan Bast,             UiT The Arctic U. of Norway,  Norway      (DALTON installation and execution frameworks)
  Pablo Baudin,             University of Valencia,       Spain       (Cholesky excitation energies)
  Linus Boman,              NTNU,                         Norway      (Cholesky decomposition and subsystems)
  Bruno N. Cabral Tenorio,  Technical Univ. of Denmark,   Denmark     (Lanczos-based CC methods)
  Ove Christiansen,         Aarhus University,            Denmark     (CC module)
  Renzo Cimiraglia,         University of Ferrara,        Italy       (NEVPT2)
  Sonia Coriani,            Technical Univ. of Denmark,   Denmark     (CC and RESPONS modules)
  Janusz Cukras,            University of Warsaw,         Poland      (MChD in RESPONS)
  Paal Dahle,               University of Oslo,           Norway      (Parallelization)
  Erik K. Dalskov,          UNI-C,                        Denmark     (SOPPA)
  Thomas Enevoldsen,        Univ. of Southern Denmark,    Denmark     (SOPPA)
  Janus J. Eriksen,         Aarhus University,            Denmark     (Polarizable embedding, TDA)
  Rasmus Faber,             Technical Univ. of Denmark,   Denmark     (Vib.avg. NMR w. SOPPA, parallel AO-SOPPA, CVS-CC and EOMCC)
  Tobias Fahleson,          KTH Stockholm,                Sweden      (Damped cubic response)
  Berta Fernandez,          U. of Santiago de Compostela, Spain       (Doublet spin, ESR in RESPONS)
  Lara Ferrighi,            Aarhus University,            Denmark     (PCM Cubic response)
  Heike Fliegl,             University of Oslo,           Norway      (CCSD(R12))
  Luca Frediani,            UiT The Arctic U. of Norway,  Norway      (PCM)
  Emmanuel Fromager,        Univ. Strasbourg,             France      (MC-srDFT)
  Bin Gao,                  UiT The Arctic U. of Norway,  Norway      (Gen1Int library)
  Andre S. P. Gomes,        CNRS/Universite de Lille,     France      (Frozen density embedding)
  Christof Haettig,         Ruhr-University Bochum,       Germany     (CC module)
  Kasper Hald,              Aarhus University,            Denmark     (CC module)
  Asger Halkier,            Aarhus University,            Denmark     (CC module)
  Frederik Beyer Hansen,    University of Copenhagen,     Denmark     (Parallel AO-SOPPA)
  Erik D. Hedegaard,        Univ. of Southern Denmark,    Denmark     (Polarizable embedding, QM/MM, and MC-srDFT)
  Hanne Heiberg,            University of Oslo,           Norway      (Geometry analysis, selected one-electron integrals)
  Trygve Helgaker,          University of Oslo,           Norway      (DALTON; ABACUS, ERI, DFT modules, London, and much more)
  Alf Christian Hennum,     University of Oslo,           Norway      (Parity violation)
  Hinne Hettema,            University of Auckland,       New Zealand (Quadratic response in RESPONS; SIRIUS supersymmetry)
  Eirik Hjertenaes,         NTNU,                         Norway      (Cholesky decomposition)
  Pi A. B. Haase,           University of Copenhagen,     Denmark     (Triplet AO-SOPPA)
  Maria Francesca Iozzi,    University of Oslo,           Norway      (RPA)
  Christoph Jacob           TU Braunschweig               Germany     (Frozen density embedding)
  Brano Jansik              Technical Univ. of Ostrava    Czech Rep.  (DFT cubic response)
  Hans Joergen Aa. Jensen,  Univ. of Southern Denmark,    Denmark     (DALTON; SIRIUS, RESPONS, ABACUS, MC-srDFT, and much more)
  Dan Jonsson,              UiT The Arctic U. of Norway,  Norway      (Cubic response in RESPONS module)
  Poul Joergensen,          Aarhus University,            Denmark     (RESPONS, ABACUS, and CC modules)
  Maciej Kaminski,          University of Warsaw,         Poland      (CPPh in RESPONS)
  Joanna Kauczor,           Linkoeping University,        Sweden      (Complex polarization propagator (CPP) module)
  Sheela Kirpekar,          Univ. of Southern Denmark,    Denmark     (Mass-velocity & Darwin integrals)
  Erik Kjellgren,           Univ. of Southern Denmark,    Denmark     (MC-srDFT)
  Wim Klopper,              KIT Karlsruhe,                Germany     (R12 code in CC, SIRIUS, and ABACUS modules)
  Stefan Knecht,            ETH Zurich,                   Switzerland (Parallel CI and MCSCF, MC-srDFT)
  Rika Kobayashi,           Australian National Univ.,    Australia   (DIIS in CC, London in MCSCF)
  Henrik Koch,              NTNU,                         Norway      (CC module, Cholesky decomposition)
  Jacob Kongsted,           Univ. of Southern Denmark,    Denmark     (Polarizable embedding, polarizable density embedding, QM/MM)
  Andrea Ligabue,           University of Modena,         Italy       (CTOCD, AOSOPPA)
  Nanna H. List             Univ. of Southern Denmark,    Denmark     (Polarizable embedding)
  Ola B. Lutnaes,           University of Oslo,           Norway      (DFT Hessian)
  Juan I. Melo,             University of Buenos Aires,   Argentina   (LRESC, Relativistic Effects on NMR Shieldings)
  Kurt V. Mikkelsen,        University of Copenhagen,     Denmark     (MC-SCRF and QM/MM)
  Rolf H. Myhre,            NTNU,                         Norway      (Subsystems and CC3)
  Christian Neiss,          Univ. Erlangen-Nuernberg,     Germany     (CCSD(R12))
  Christian B. Nielsen,     University of Copenhagen,     Denmark     (QM/MM)
  Patrick Norman,           KTH Stockholm,                Sweden      (Cubic response and complex frequency response in RESPONS)
  Jeppe Olsen,              Aarhus University,            Denmark     (SIRIUS CI/density modules)
  Jogvan Magnus H. Olsen,   Aarhus University,            Denmark     (Polarizable embedding and polarizable density embedding)
  Anders Osted,             Copenhagen University,        Denmark     (QM/MM)
  Martin J. Packer,         University of Sheffield,      UK          (SOPPA)
  Filip Pawlowski,          Kazimierz Wielki University,  Poland      (CC3)
  Morten N. Pedersen,       Univ. of Southern Denmark,    Denmark     (Polarizable embedding)
  Thomas B. Pedersen,       University of Oslo,           Norway      (Cholesky decomposition)
  Patricio F. Provasi,      University of Northeastern,   Argentina   (Analysis of coupling constants in localized orbitals)
  Peter Reinholdt,          Univ. of Southern Denmark,    Denmark     (Polarizable embedding and polarizable density embedding)
  Zilvinas Rinkevicius,     KTH Stockholm,                Sweden      (open-shell DFT, ESR)
  Elias Rudberg,            KTH Stockholm,                Sweden      (DFT grid and basis info)
  Torgeir A. Ruden,         University of Oslo,           Norway      (Numerical derivatives in ABACUS)
  Kenneth Ruud,             UiT The Arctic U. of Norway,  Norway      (DALTON; ABACUS magnetic properties and much more)
  Pawel Salek,              KTH Stockholm,                Sweden      (DALTON; DFT code)
  Claire C. M. Samson       University of Karlsruhe       Germany     (Boys localization, r12 integrals in ERI)
  Alfredo Sanchez de Meras, University of Valencia,       Spain       (CC module, Cholesky decomposition)
  Trond Saue,               Paul Sabatier University,     France      (direct Fock matrix construction)
  Stephan P. A. Sauer,      University of Copenhagen,     Denmark     (SOPPA(CCSD), SOPPA prop., AOSOPPA, vibrational g-factors)
  Bernd Schimmelpfennig,    Forschungszentrum Karlsruhe,  Germany     (AMFI module)
  Anna K. Schnack-Petersen, University of Copenhagen,     Denmark     (RPA(D) and HRPA(D) properties in AOSOPPA)
  Kristian Sneskov,         Aarhus University,            Denmark     (Polarizable embedding, QM/MM)
  Arnfinn H. Steindal,      UiT The Arctic U. of Norway,  Norway      (parallel QM/MM, polarizable embedding)
  Casper Steinmann,         Aalborg University,           Denmark     (QFIT, polarizable embedding)
  K. O. Sylvester-Hvid,     University of Copenhagen,     Denmark     (MC-SCRF)
  Peter R. Taylor,          VLSCI/Univ. of Melbourne,     Australia   (Symmetry handling ABACUS, integral transformation)
  Andrew M. Teale,          University of Nottingham,     England     (DFT-AC, DFT-D)
  David P. Tew,             University of Bristol,        England     (CCSD(R12))
  Julien Toulouse,          Sorbonne Univ.,               France      (MC-srDFT)
  Olav Vahtras,             KTH Stockholm,                Sweden      (Triplet response, spin-orbit, ESR, TDDFT, open-shell DFT)
  Lucas Visscher,           Vrije Universiteit Amsterdam, Netherlands (Frozen density embedding)
  David J. Wilson,          La Trobe University,          Australia   (DFT Hessian and DFT magnetizabilities)
  Hans Agren,               KTH Stockholm,                Sweden      (SIRIUS module, RESPONS, MC-SCRF solvation)
 --------------------------------------------------------------------------------

     Date and time (Linux)  : Thu May 29 17:20:02 2025
     Host name              : xm009                                   

 * Work memory size             :   131072000 = 1000.00 megabytes.

 * Directories for basis set searches:
   1) /gpfs/projects/rjh/adrian/summer2025/beta_projects/raw_data/NLO/dalton/hf/n12/dipole
   2) /gpfs/projects/rjh/adrian/dalton/build/basis


Compilation information
-----------------------

 Who compiled             | ahurtado
 Host                     | milan2
 System                   | Linux-5.14.0-427.42.1.el9_4.x86_64
 CMake generator          | Unix Makefiles
 Processor                | x86_64
 64-bit integers          | OFF
 MPI                      | ON
 Fortran compiler         | /gpfs/software/openmpi/milan/gcc13.2/4.1.6/bin/mpi
                          | f90
 Fortran compiler version | GNU Fortran (GCC) 13.2.0
 C compiler               | /gpfs/software/openmpi/milan/gcc13.2/4.1.6/bin/mpi
                          | cc
 C compiler version       | gcc (GCC) 13.2.0
 C++ compiler             | /gpfs/software/openmpi/milan/gcc13.2/4.1.6/bin/mpi
                          | cxx
 C++ compiler version     | unknown
 BLAS                     | /gpfs/software/intel/oneAPI/2024_2/mkl/2024.2/lib/
                          | intel64/libmkl_gf_lp64.so;/gpfs/software/intel/one
                          | API/2024_2/mkl/2024.2/lib/intel64/libmkl_sequentia
                          | l.so;/gpfs/software/intel/oneAPI/2024_2/mkl/2024.2
                          | /lib/intel64/libmkl_core.so;/usr/lib64/libpthread.
                          | a;/usr/lib64/libm.so
 LAPACK                   | /gpfs/software/intel/oneAPI/2024_2/mkl/2024.2/lib/
                          | intel64/libmkl_lapack95_lp64.a;/gpfs/software/inte
                          | l/oneAPI/2024_2/mkl/2024.2/lib/intel64/libmkl_gf_l
                          | p64.so
 Static linking           | OFF
 Last Git revision        | 66052b3af5ea7225e31178bf9a8b031913c72190
 Git branch               | (HEAD detached at Dalton2020.0)
 Configuration time       | 2025-04-10 16:02:31.569498

 * MPI parallel run using 576 processes.


   Content of the .dal input file
 ----------------------------------

**DALTON INPUT
.RUN RESPONSE
.DIRECT
**WAVE FUNCTIONS
.HF
**PROPERTIES
**RESPONSE
*QUADRA
.DIPLEN
.FREQUENCIES
2
0.0 0.016
**END OF DALTON INPUT


   Content of the .mol file
 ----------------------------

BASIS
d-aug-cc-pVDZ
blah
blah
Atomtype=4 Angstrom Charge=0 Nosymmetry
Charge=6 Atoms=24
C_a 0.3580729984542411 -3.23821500246098 0.0
C_b 0.6668920025089234 -1.8967230021925146 0.0
C_c -0.31386499980588656 -0.8461899999464687 0.0
C_d 0.0 0.49460499985073547 0.0
C_e -0.9760669999485396 1.5491160018178671 0.0
C_f -0.6568810015786077 2.8888150015269645 0.0
C_g -1.6277509997671062 3.94816100041609 0.0
C_h -1.301926002321602 5.286146000431598 0.0
C_i -2.266093997595825 6.352103999775008 0.0
C_j -1.9310690003377617 7.687350999860106 0.0
C_k -2.8855839989400045 8.763118997462131 0.0
C_l -2.5364960008893993 10.093720001557799 0.0
C_m -3.475062000536728 11.185541997456877 0.0
C_n -3.1003099978736817 12.50702899832849 0.0
C_o -4.006745997738482 13.627608997447128 0.0
C_p -3.5646809975535416 14.924006997663415 0.0
C_q 3.246977002296268 -12.722374002304349 0.0
C_r 3.505096998325759 -11.394324997641315 0.0
C_s 2.469080999168377 -10.384737997547434 0.0
C_t 2.747355000313701 -9.04300299910383 0.0
C_u 1.7412740003278493 -8.010249001734408 0.0
C_v 2.034720999091044 -6.6680930004855385 0.0
C_w 1.0413089989552107 -5.626705000664547 0.0
C_x 1.3440610021648778 -4.284781001288378 0.0
Charge=7 Atoms=2
N_a -4.34941500213885 16.045511998546303 0.0
N_b 4.329315999702294 -13.700565998010687 0.0
Charge=8 Atoms=2
O_a 3.975711998044059 -14.88588500261371 0.0
O_b 5.495162002633667 -13.299550999175127 0.0
Charge=1 Atoms=26
H_a -0.7010630017506021 -3.5345659987538016 0.0
H_b 1.7270470022259492 -1.602783000772771 0.0
H_c -1.3743469992884736 -1.1379549983620045 0.0
H_d 1.0614080013917666 0.7841610009180505 0.0
H_e -2.0377939999464423 1.2617729986784856 0.0
H_f 0.4058810002503279 3.1736170015361505 0.0
H_g -2.69087900172203 3.666001002299527 0.0
H_h -0.23745300123386257 5.5648799994508416 0.0
H_i -3.331021000979687 6.076852997530446 0.0
H_j -0.8641970008243106 7.957424997951419 0.0
H_k -3.9530280019757846 8.49803499758959 0.0
H_l -1.4658389978753656 10.349718002264273 0.0
H_m -4.546436001628814 10.937914998128267 0.0
H_n -2.0230369991174233 12.73533200170443 0.0
H_o -5.086749000557497 13.426423997738299 0.0
H_p -2.4860810022731745 15.125354999828447 0.0
H_q -5.357553998755857 15.972702998265024 0.0
H_r -3.9401509984395693 16.966787000540688 0.0
H_s 2.2588980024636176 -13.186488001780075 0.0
H_t 4.555452001233451 -11.07896899871019 0.0
H_u 1.4211929992497394 -10.714244999441236 0.0
H_v 3.8003869996029587 -8.72551199767385 0.0
H_w 0.687156002399766 -8.322594998357067 0.0
H_x 3.091255998053547 -6.361639000512555 0.0
H_y -0.01596000054912352 -5.9291510018603715 0.0
H_z 2.4027659981151746 -3.985781002088436 0.0


       *******************************************************************
       *********** Output from DALTON general input processing ***********
       *******************************************************************

 --------------------------------------------------------------------------------
   Overall default print level:    0
   Print level for DALTON.STAT:    1

    Parallel calculation using MPI
    AO-direct calculation (in sections where implemented)
    HERMIT 1- and 2-electron integral sections will be executed
    "Old" integral transformation used (limited to max 255 basis functions)
    Wave function sections will be executed (SIRIUS module)
    Dynamic molecular response properties section will be executed (RESPONSE module)
 --------------------------------------------------------------------------------


   ****************************************************************************
   *************** Output of molecule and basis set information ***************
   ****************************************************************************


    The two title cards from your ".mol" input:
    ------------------------------------------------------------------------
 1: blah                                                                    
 2: blah                                                                    
    ------------------------------------------------------------------------

  Coordinates are entered in Angstrom and converted to atomic units.
          - Conversion factor : 1 bohr = 0.52917721 A

  Atomic type no.    1
  --------------------
  Nuclear charge:   6.00000
  Number of symmetry independent centers:   24
  Number of basis sets to read;    2
  Basis set file used for this atomic type with Z =   6 :
     "/gpfs/projects/rjh/adrian/dalton/build/basis/aug-cc-pVDZ"

  Atomic type no.    2
  --------------------
  Nuclear charge:   7.00000
  Number of symmetry independent centers:    2
  Number of basis sets to read;    2
  Basis set file used for this atomic type with Z =   7 :
     "/gpfs/projects/rjh/adrian/dalton/build/basis/aug-cc-pVDZ"

  Atomic type no.    3
  --------------------
  Nuclear charge:   8.00000
  Number of symmetry independent centers:    2
  Number of basis sets to read;    2
  Basis set file used for this atomic type with Z =   8 :
     "/gpfs/projects/rjh/adrian/dalton/build/basis/aug-cc-pVDZ"

  Atomic type no.    4
  --------------------
  Nuclear charge:   1.00000
  Number of symmetry independent centers:   26
  Number of basis sets to read;    2
  Basis set file used for this atomic type with Z =   1 :
     "/gpfs/projects/rjh/adrian/dalton/build/basis/aug-cc-pVDZ"


                         SYMGRP: Point group information
                         -------------------------------

@    Point group: C1 


                                 Isotopic Masses
                                 ---------------

                           C_a        12.000000
                           C_b        12.000000
                           C_c        12.000000
                           C_d        12.000000
                           C_e        12.000000
                           C_f        12.000000
                           C_g        12.000000
                           C_h        12.000000
                           C_i        12.000000
                           C_j        12.000000
                           C_k        12.000000
                           C_l        12.000000
                           C_m        12.000000
                           C_n        12.000000
                           C_o        12.000000
                           C_p        12.000000
                           C_q        12.000000
                           C_r        12.000000
                           C_s        12.000000
                           C_t        12.000000
                           C_u        12.000000
                           C_v        12.000000
                           C_w        12.000000
                           C_x        12.000000
                           N_a        14.003074
                           N_b        14.003074
                           O_a        15.994915
                           O_b        15.994915
                           H_a         1.007825
                           H_b         1.007825
                           H_c         1.007825
                           H_d         1.007825
                           H_e         1.007825
                           H_f         1.007825
                           H_g         1.007825
                           H_h         1.007825
                           H_i         1.007825
                           H_j         1.007825
                           H_k         1.007825
                           H_l         1.007825
                           H_m         1.007825
                           H_n         1.007825
                           H_o         1.007825
                           H_p         1.007825
                           H_q         1.007825
                           H_r         1.007825
                           H_s         1.007825
                           H_t         1.007825
                           H_u         1.007825
                           H_v         1.007825
                           H_w         1.007825
                           H_x         1.007825
                           H_y         1.007825
                           H_z         1.007825

                       Total mass:   374.199428 amu
                       Natural abundance:  75.459 %

 Center-of-mass coordinates (a.u.):    0.093454   -0.289436    0.000000
 Center-of-mass coordinates (Angs):    0.049454   -0.153163    0.000000


  Atoms and basis sets
  --------------------

  Number of atom types :    4
  Total number of atoms:   54

  Basis set used is "d-aug-cc-pVDZ" from the basis set library.

  label    atoms   charge   prim   cont     basis
  ----------------------------------------------------------------------
  C_         24    6.0000    44    32      [11s6p3d|5s4p3d]                                   
  N_          2    7.0000    44    32      [11s6p3d|5s4p3d]                                   
  O_          2    8.0000    44    32      [11s6p3d|5s4p3d]                                   
  H_         26    1.0000    15    13      [6s3p|4s3p]                                        
  ----------------------------------------------------------------------
  total:     54  200.0000  1622  1234
  ----------------------------------------------------------------------
  Spherical harmonic basis used.

  Threshold for neglecting AO integrals:  1.00D-12

  Max    interatomic separation is   32.8215 Angstrom (   62.0237 Bohr)
  between atoms   46 and   27, "H_r   " and "O_a   ".

  Min HX interatomic separation is    1.0081 Angstrom (    1.9050 Bohr)

  Min YX interatomic separation is    1.2329 Angstrom (    2.3298 Bohr)


  Bond distances (Angstrom):
  --------------------------

                  atom 1     atom 2       distance
                  ------     ------       --------
  bond distance:  C_b        C_a          1.376579
  bond distance:  C_c        C_b          1.437186
  bond distance:  C_d        C_c          1.377041
  bond distance:  C_e        C_d          1.436906
  bond distance:  C_f        C_e          1.377198
  bond distance:  C_g        C_f          1.436942
  bond distance:  C_h        C_g          1.377086
  bond distance:  C_i        C_h          1.437319
  bond distance:  C_j        C_i          1.376636
  bond distance:  C_k        C_j          1.438185
  bond distance:  C_l        C_k          1.375631
  bond distance:  C_m        C_l          1.439785
  bond distance:  C_n        C_m          1.373596
  bond distance:  C_o        C_n          1.441293
  bond distance:  C_p        C_o          1.369697
  bond distance:  C_r        C_q          1.352901
  bond distance:  C_s        C_r          1.446580
  bond distance:  C_t        C_s          1.370288
  bond distance:  C_u        C_t          1.441797
  bond distance:  C_v        C_u          1.373861
  bond distance:  C_w        C_v          1.439221
  bond distance:  C_x        C_a          1.437871
  bond distance:  C_x        C_w          1.375652
  bond distance:  N_a        C_p          1.368788
  bond distance:  N_b        C_q          1.458875
  bond distance:  O_a        N_b          1.236939
  bond distance:  O_b        N_b          1.232887
  bond distance:  H_a        C_a          1.099815
  bond distance:  H_b        C_b          1.100150
  bond distance:  H_c        C_c          1.099886
  bond distance:  H_d        C_d          1.100195
  bond distance:  H_e        C_e          1.099923
  bond distance:  H_f        C_f          1.100261
  bond distance:  H_g        C_g          1.099934
  bond distance:  H_h        C_h          1.100361
  bond distance:  H_i        C_i          1.099924
  bond distance:  H_j        C_j          1.100525
  bond distance:  H_k        C_k          1.099866
  bond distance:  H_l        C_l          1.100837
  bond distance:  H_m        C_m          1.099619
  bond distance:  H_n        C_n          1.101199
  bond distance:  H_o        C_o          1.098582
  bond distance:  H_p        C_p          1.097232
  bond distance:  H_q        N_a          1.010765
  bond distance:  H_r        N_a          1.008090
  bond distance:  H_s        C_q          1.091651
  bond distance:  H_t        C_r          1.096675
  bond distance:  H_u        C_s          1.098474
  bond distance:  H_v        C_t          1.099853
  bond distance:  H_w        C_u          1.099420
  bond distance:  H_x        C_v          1.100082
  bond distance:  H_y        C_w          1.099678
  bond distance:  H_z        C_x          1.100117


  Bond angles (degrees):
  ----------------------

                  atom 1     atom 2     atom 3         angle
                  ------     ------     ------         -----
  bond angle:     C_b        C_a        C_x          123.743
  bond angle:     C_b        C_a        H_a          118.596
  bond angle:     C_x        C_a        H_a          117.661
  bond angle:     C_a        C_b        C_c          124.003
  bond angle:     C_a        C_b        H_b          118.461
  bond angle:     C_c        C_b        H_b          117.536
  bond angle:     C_b        C_c        C_d          123.792
  bond angle:     C_b        C_c        H_c          117.650
  bond angle:     C_d        C_c        H_c          118.558
  bond angle:     C_c        C_d        C_e          124.037
  bond angle:     C_c        C_d        H_d          118.434
  bond angle:     C_e        C_d        H_d          117.528
  bond angle:     C_d        C_e        C_f          123.811
  bond angle:     C_d        C_e        H_e          117.644
  bond angle:     C_f        C_e        H_e          118.545
  bond angle:     C_e        C_f        C_g          124.094
  bond angle:     C_e        C_f        H_f          118.403
  bond angle:     C_g        C_f        H_f          117.503
  bond angle:     C_f        C_g        C_h          123.809
  bond angle:     C_f        C_g        H_g          117.641
  bond angle:     C_h        C_g        H_g          118.550
  bond angle:     C_g        C_h        C_i          124.184
  bond angle:     C_g        C_h        H_h          118.360
  bond angle:     C_i        C_h        H_h          117.456
  bond angle:     C_h        C_i        C_j          123.785
  bond angle:     C_h        C_i        H_i          117.638
  bond angle:     C_j        C_i        H_i          118.577
  bond angle:     C_i        C_j        C_k          124.333
  bond angle:     C_i        C_j        H_j          118.291
  bond angle:     C_k        C_j        H_j          117.376
  bond angle:     C_j        C_k        C_l          123.717
  bond angle:     C_j        C_k        H_k          117.636
  bond angle:     C_l        C_k        H_k          118.647
  bond angle:     C_k        C_l        C_m          124.616
  bond angle:     C_k        C_l        H_l          118.148
  bond angle:     C_m        C_l        H_l          117.236
  bond angle:     C_l        C_m        C_n          123.484
  bond angle:     C_l        C_m        H_m          117.669
  bond angle:     C_n        C_m        H_m          118.847
  bond angle:     C_m        C_n        C_o          125.198
  bond angle:     C_m        C_n        H_n          117.798
  bond angle:     C_o        C_n        H_n          117.004
  bond angle:     C_n        C_o        C_p          122.202
  bond angle:     C_n        C_o        H_o          118.417
  bond angle:     C_p        C_o        H_o          119.381
  bond angle:     C_o        C_p        N_a          126.190
  bond angle:     C_o        C_p        H_p          119.403
  bond angle:     N_a        C_p        H_p          114.407
  bond angle:     C_r        C_q        N_b          121.108
  bond angle:     C_r        C_q        H_s          126.159
  bond angle:     N_b        C_q        H_s          112.733
  bond angle:     C_q        C_r        C_s          123.261
  bond angle:     C_q        C_r        H_t          117.711
  bond angle:     C_s        C_r        H_t          119.028
  bond angle:     C_r        C_s        C_t          122.543
  bond angle:     C_r        C_s        H_u          118.285
  bond angle:     C_t        C_s        H_u          119.173
  bond angle:     C_s        C_t        C_u          124.033
  bond angle:     C_s        C_t        H_v          118.495
  bond angle:     C_u        C_t        H_v          117.472
  bond angle:     C_t        C_u        C_v          123.417
  bond angle:     C_t        C_u        H_w          117.745
  bond angle:     C_v        C_u        H_w          118.838
  bond angle:     C_u        C_v        C_w          124.018
  bond angle:     C_u        C_v        H_x          118.508
  bond angle:     C_w        C_v        H_x          117.474
  bond angle:     C_v        C_w        C_x          123.637
  bond angle:     C_v        C_w        H_y          117.685
  bond angle:     C_x        C_w        H_y          118.678
  bond angle:     C_a        C_x        C_w          123.993
  bond angle:     C_a        C_x        H_z          117.522
  bond angle:     C_w        C_x        H_z          118.484
  bond angle:     C_p        N_a        H_q          120.850
  bond angle:     C_p        N_a        H_r          121.066
  bond angle:     H_q        N_a        H_r          118.083
  bond angle:     C_q        N_b        O_a          115.496
  bond angle:     C_q        N_b        O_b          118.912
  bond angle:     O_a        N_b        O_b          125.593




 Principal moments of inertia (u*A**2) and principal axes
 --------------------------------------------------------

   IA     140.262994         -0.275195    0.961388    0.000000
   IB   37833.783511          0.961388    0.275195    0.000000
   IC   37974.046505          0.000000    0.000000    1.000000


 Rotational constants
 --------------------

@    The molecule is planar.

               A                   B                   C

           3603.0815             13.3579             13.3085 MHz
            0.120186            0.000446            0.000444 cm-1


@  Nuclear repulsion energy : 1740.311733291155 Hartree


                     .---------------------------------------.
                     | Starting in Integral Section (HERMIT) |
                     `---------------------------------------'



 ***************************************************************************************
 ****************** Output from **INTEGRALS input processing (HERMIT) ******************
 ***************************************************************************************


 - Using defaults, no **INTEGRALS input found

 Default print level:        1

 Calculation of one-electron Hamiltonian integrals.

 Center of mass  (bohr):      0.093454216468     -0.289436425668      0.000000000000
 Operator center (bohr):      0.000000000000      0.000000000000      0.000000000000
 Gauge origin    (bohr):      0.000000000000      0.000000000000      0.000000000000
 Dipole origin   (bohr):      0.000000000000      0.000000000000      0.000000000000


     ************************************************************************
     ************************** Output from HERINT **************************
     ************************************************************************



                      Nuclear contribution to dipole moments
                      --------------------------------------

                 au               Debye          C m (/(10**-30)

      x      0.00000383         0.00000973         0.00003247
      y     -0.00000583        -0.00001482        -0.00004943
      z      0.00000000         0.00000000         0.00000000


  Time used in ONEDRV     is       3.54 seconds
  Time used in HUCKEL     is       0.76 seconds
  Time used in OVERLAP    is       0.40 seconds
  Time used in POPOVLP    is       0.79 seconds
  Time used in R2         is       0.49 seconds
  Time used in R4         is       0.57 seconds
  Time used in DIPLEN     is       0.53 seconds
  Time used in QUADRUP    is       1.01 seconds
  Time used in KINENE     is       0.70 seconds
  Time used in GABGEN     is       3.02 seconds
  Total CPU  time used in HERMIT:  11.80 seconds
  Total wall time used in HERMIT:  11.90 seconds


                        .----------------------------------.
                        | End of Integral Section (HERMIT) |
                        `----------------------------------'



                   .--------------------------------------------.
                   | Starting in Wave Function Section (SIRIUS) |
                   `--------------------------------------------'



@ Primary orbitals are deleted during canonical orthonormalization
@   because of detected numerical linear dependence or too large coefficients.
@ Eigenvalue threshold for num. lin. dep. =  1.00D-06

@  96 MO components are deleted in symmetry    1
 Overlap eigenvalues of the deleted orbitals:
  9.83D-07  9.50D-07  9.27D-07  8.63D-07  8.04D-07
  7.39D-07  7.16D-07  7.06D-07  6.78D-07  6.67D-07
  6.16D-07  5.80D-07  5.70D-07  5.24D-07  4.91D-07
  4.42D-07  4.38D-07  4.06D-07  3.98D-07  3.72D-07
  3.43D-07  3.08D-07  2.87D-07  2.61D-07  2.47D-07
  2.43D-07  2.28D-07  2.25D-07  2.02D-07  1.95D-07
  1.77D-07  1.69D-07  1.56D-07  1.53D-07  1.33D-07
  1.27D-07  1.18D-07  1.10D-07  1.09D-07  9.59D-08
  8.54D-08  8.01D-08  7.39D-08  6.57D-08  6.51D-08
  6.10D-08  5.26D-08  5.02D-08  4.48D-08  4.20D-08
  3.99D-08  3.25D-08  3.09D-08  2.84D-08  2.81D-08
  2.79D-08  2.50D-08  2.20D-08  2.08D-08  1.98D-08
  1.71D-08  1.54D-08  1.52D-08  1.38D-08  1.32D-08
  1.23D-08  1.18D-08  1.14D-08  9.35D-09  8.99D-09
  8.47D-09  8.41D-09  6.63D-09  6.19D-09  5.92D-09
  5.43D-09  5.06D-09  3.76D-09  3.44D-09  3.22D-09
  3.02D-09  2.81D-09  2.75D-09  2.53D-09  2.01D-09
  1.94D-09  1.54D-09  1.12D-09  1.08D-09  1.03D-09
  6.48D-10  5.31D-10  1.48D-10  1.32D-10  7.46D-11
  5.63D-11

 Max MO coeff. of last deleted MO & limit:  1.95D+02  1.00D+03

WARNING: Orbitals have been deleted because of numerical
   linear dependence although not requested in input.

 *** Output from Huckel module :

     Using EWMO model:          T
     Using EHT  model:          F
     Number of Huckel orbitals each symmetry:  166

 EWMO - Energy Weighted Maximum Overlap - is a Huckel type method,
        which normally is better than Extended Huckel Theory.
 Reference: Linderberg and Ohrn, Propagators in Quantum Chemistry (Wiley, 1973)

 Huckel EWMO eigenvalues for symmetry :  1
          -20.684753     -20.683497     -15.677079     -15.674962     -11.359394
          -11.359350     -11.359118     -11.359058     -11.358824     -11.358586
          -11.357741     -11.356591     -11.355230     -11.353765     -11.352311
          -11.351023     -11.348583     -11.347777     -11.346971     -11.346307
          -11.345818     -11.345522     -11.345464     -11.345425     -11.345311
          -11.345297     -11.345197     -11.345189      -1.964011      -1.792674
           -1.789301      -1.780329      -1.762146      -1.731489      -1.686309
           -1.626472      -1.553811      -1.473325      -1.442154      -1.378556
           -1.286931      -1.210078      -1.196357      -1.184738      -1.150264
           -1.104614      -1.101462      -1.047056      -1.014902      -0.985810
           -0.941618      -0.919563      -0.878671      -0.855342      -0.852013
           -0.825157      -0.817088      -0.783067      -0.764995      -0.747067
           -0.742305      -0.737399      -0.702586      -0.691743      -0.677046
           -0.662816      -0.654788      -0.634880      -0.620163      -0.615685
           -0.598782      -0.586029      -0.575561      -0.573885      -0.558293
           -0.540747      -0.532295      -0.530884      -0.523157      -0.507304
           -0.499012      -0.494633      -0.492781      -0.490185      -0.488753
           -0.486517      -0.484696      -0.479496      -0.479291      -0.474729
           -0.474639      -0.457411      -0.450656      -0.426088      -0.414608
           -0.398388      -0.382666      -0.376948      -0.363349      -0.355208
           -0.335806      -0.304341      -0.282961      -0.264085      -0.247935
           -0.234409      -0.229133      -0.223314      -0.214413      -0.207450
           -0.202165      -0.200917      -0.198323      -0.195725      -0.194224
           -0.190584      -0.166727      -0.142733      -0.138992      -0.135175
           -0.132643      -0.131589      -0.131336      -0.130637      -0.129925
           -0.129796      -0.129494      -0.129402      -0.128978      -0.128684
           -0.127673      -0.127369      -0.127185      -0.126476      -0.126268
           -0.126008      -0.125581      -0.124706      -0.124538      -0.123961
           -0.123650      -0.123200      -0.112568      -0.111634      -0.108803
           -0.106726      -0.104118      -0.101936      -0.099435      -0.097321
           -0.094962      -0.093758      -0.091421      -0.090788      -0.088993
           -0.088193      -0.087181      -0.086294      -0.085735      -0.085136
           -0.084454      -0.083192      -0.081955      -0.080787      -0.079839
           -0.079342

 **********************************************************************
 *SIRIUS* a direct, restricted step, second order MCSCF program       *
 **********************************************************************

 
     Date and time (Linux)  : Thu May 29 17:21:56 2025
     Host name              : xm009                                   

 Title lines from ".mol" input file:
     blah                                                                    
     blah                                                                    

 Print level on unit LUPRI =   2 is   0
 Print level on unit LUW4  =   2 is   5

@    Restricted, closed shell Hartree-Fock calculation.

@    Time-dependent Hartree-Fock calculation (random phase approximation).
 Fock matrices are calculated directly and in parallel without use of integrals on disk.

 Initial molecular orbitals are obtained according to
 ".MOSTART EWMO  " input option

     Wave function specification
     ============================
@    Wave function type        --- HF ---
@    Number of closed shell electrons         200
@    Number of electrons in active shells       0
@    Total charge of the molecule               0

@    Spin multiplicity and 2 M_S                1         0
@    Total number of symmetries                 1 (point group: C1 )
@    Reference state symmetry                   1 (irrep name : A  )

     Orbital specifications
     ======================
@    Abelian symmetry species          All |    1
@                                          |  A  
                                       --- |  ---
@    Occupied SCF orbitals             100 |  100
@    Secondary orbitals               1038 | 1038
@    Total number of orbitals         1138 | 1138
@    Number of basis functions        1234 | 1234

     Optimization information
     ========================
@    Number of configurations                 1
@    Number of orbital rotations         103800
     ------------------------------------------
@    Total number of variables           103801

     Maximum number of Fock   iterations      0
     Maximum number of DIIS   iterations     60
     Maximum number of QC-SCF iterations     60
     Threshold for SCF convergence     1.00D-05

    INFORMATION: Switched to "new" integral transformation (from 1988 ;-) )
    because more than 255 basis functions.


 ***********************************************
 ***** DIIS acceleration of SCF iterations *****
 ***********************************************

 C1-DIIS algorithm; max error vectors =    8

 Iter      Total energy        Error norm    Delta(E)  DIIS dim.
 -----------------------------------------------------------------------------
   1  Screening settings (-IFTHRS, JTDIIS, DIFDEN, times)  -10    1    T  2.06D+01  2.08D+01
@  1    -1178.13390388        7.65148D+00   -1.18D+03    1
      Virial theorem: -V/T =      2.012435
@    MULPOP   C_a     0.41; C_b     0.43; C_c     0.44; C_d     0.48; C_e     0.36; C_f     0.45; C_g     0.40; C_h     0.42; C_i     0.32; C_j     0.51; 
@             C_k     0.45; C_l     0.66; C_m     0.33; C_n     0.75; C_o     0.06; C_p     1.03; C_q     0.92; C_r     0.34; C_s     0.53; C_t     0.50; 
@             C_u     0.51; C_v     0.58; C_w     0.39; C_x     0.49; N_a    -0.32; N_b     0.81; O_a    -1.16; O_b    -1.23; H_a    -0.43; H_b    -0.43; 
@    MULPOP    dipole moment & components:     34.9853;      -11.2330     33.1329      0.0000
   1  Level shift: doubly occupied orbital energies shifted by -2.00D-01
 -----------------------------------------------------------------------------
   2  Screening settings (-IFTHRS, JTDIIS, DIFDEN, times)  -10    2    T  1.69D+01  1.69D+01
@  2    -1181.87943585        2.89389D+00   -3.75D+00    2
      Virial theorem: -V/T =      2.001021
@    MULPOP   C_a     0.75; C_b     0.87; C_c     0.89; C_d     0.44; C_e     0.58; C_f     0.76; C_g     0.98; C_h     0.78; C_i     0.41; C_j     0.90; 
@             C_k     0.99; C_l     1.08; C_m     0.32; C_n     0.76; C_o     0.90; C_p    -0.31; C_q     0.33; C_r     0.15; C_s     0.75; C_t     0.45; 
@             C_u     0.91; C_v     0.96; C_w     0.94; C_x     0.53; N_a     0.28; N_b     0.60; O_a    -0.43; O_b    -0.69; H_a    -0.61; H_b    -0.66; 
@    MULPOP    dipole moment & components:     11.3011;       -5.9016      9.6378      0.0000
   2  Level shift: doubly occupied orbital energies shifted by -1.00D-01
 -----------------------------------------------------------------------------
   3  Screening settings (-IFTHRS, JTDIIS, DIFDEN, times)  -10    3    T  1.67D+01  1.67D+01
@  3    -1182.36042602        9.98571D-01   -4.81D-01    3
      Virial theorem: -V/T =      2.001298
@    MULPOP   C_a     0.74; C_b     0.86; C_c     0.89; C_d     0.38; C_e     0.58; C_f     0.72; C_g     0.99; C_h     0.75; C_i     0.37; C_j     0.89; 
@             C_k     1.00; C_l     1.03; C_m     0.11; C_n     0.58; C_o     0.78; C_p    -0.27; C_q     0.64; C_r     0.02; C_s     0.63; C_t     0.27; 
@             C_u     0.90; C_v     0.97; C_w     0.97; C_x     0.45; N_a     0.19; N_b     0.68; O_a    -0.74; O_b    -0.82; H_a    -0.55; H_b    -0.60; 
@    MULPOP    dipole moment & components:     10.0531;       -6.0960      7.9939      0.0000
   3  Level shift: doubly occupied orbital energies shifted by -5.00D-02
 -----------------------------------------------------------------------------
   4  Screening settings (-IFTHRS, JTDIIS, DIFDEN, times)  -10    4    T  1.64D+01  1.64D+01
@  4    -1182.43199760        3.06153D-01   -7.16D-02    4
      Virial theorem: -V/T =      2.002724
@    MULPOP   C_a     0.72; C_b     0.85; C_c     0.88; C_d     0.35; C_e     0.57; C_f     0.70; C_g     0.99; C_h     0.71; C_i     0.35; C_j     0.87; 
@             C_k     0.99; C_l     0.97; C_m     0.04; C_n     0.48; C_o     0.77; C_p    -0.29; C_q     0.53; C_r    -0.01; C_s     0.60; C_t     0.21; 
@             C_u     0.88; C_v     0.97; C_w     0.94; C_x     0.43; N_a     0.19; N_b     0.47; O_a    -0.58; O_b    -0.77; H_a    -0.51; H_b    -0.56; 
@    MULPOP    dipole moment & components:      9.0596;       -6.0119      6.7774      0.0000
   4  Level shift: doubly occupied orbital energies shifted by -2.50D-02
 -----------------------------------------------------------------------------
   5  Screening settings (-IFTHRS, JTDIIS, DIFDEN, times)  -10    5    T  1.62D+01  1.63D+01
@  5    -1182.44707034        1.29328D-01   -1.51D-02    5
      Virial theorem: -V/T =      2.002188
@    MULPOP   C_a     0.71; C_b     0.84; C_c     0.89; C_d     0.36; C_e     0.56; C_f     0.69; C_g     0.98; C_h     0.69; C_i     0.34; C_j     0.86; 
@             C_k     0.99; C_l     0.96; C_m     0.02; C_n     0.43; C_o     0.78; C_p    -0.33; C_q     0.56; C_r    -0.09; C_s     0.60; C_t     0.14; 
@             C_u     0.90; C_v     0.94; C_w     0.95; C_x     0.41; N_a     0.18; N_b     0.48; O_a    -0.62; O_b    -0.74; H_a    -0.49; H_b    -0.55; 
@    MULPOP    dipole moment & components:      8.0730;       -5.8730      5.5391      0.0000
   5  Level shift: doubly occupied orbital energies shifted by -1.25D-02
 -----------------------------------------------------------------------------
   6  Screening settings (-IFTHRS, JTDIIS, DIFDEN, times)  -14    6    F  1.81D+01  1.82D+01
@  6    -1182.45146064        6.89495D-02   -4.39D-03    6
      Virial theorem: -V/T =      2.002057
@    MULPOP   C_a     0.71; C_b     0.83; C_c     0.90; C_d     0.35; C_e     0.57; C_f     0.70; C_g     0.99; C_h     0.68; C_i     0.34; C_j     0.87; 
@             C_k     0.99; C_l     0.95; C_m    -0.00; C_n     0.41; C_o     0.76; C_p    -0.33; C_q     0.55; C_r    -0.11; C_s     0.60; C_t     0.10; 
@             C_u     0.93; C_v     0.94; C_w     0.96; C_x     0.41; N_a     0.17; N_b     0.46; O_a    -0.60; O_b    -0.75; H_a    -0.49; H_b    -0.55; 
@    MULPOP    dipole moment & components:      7.5854;       -5.8497      4.8290      0.0000
   6  Level shift: doubly occupied orbital energies shifted by -1.25D-02
 -----------------------------------------------------------------------------
   7  Screening settings (-IFTHRS, JTDIIS, DIFDEN, times)  -14    7    T  1.78D+01  1.79D+01
@  7    -1182.45307090        3.22357D-02   -1.61D-03    7
      Virial theorem: -V/T =      2.002075
@    MULPOP   C_a     0.72; C_b     0.83; C_c     0.90; C_d     0.36; C_e     0.58; C_f     0.70; C_g     0.99; C_h     0.67; C_i     0.35; C_j     0.87; 
@             C_k     0.99; C_l     0.96; C_m    -0.02; C_n     0.39; C_o     0.76; C_p    -0.32; C_q     0.56; C_r    -0.12; C_s     0.60; C_t     0.08; 
@             C_u     0.94; C_v     0.93; C_w     0.96; C_x     0.41; N_a     0.17; N_b     0.46; O_a    -0.60; O_b    -0.73; H_a    -0.49; H_b    -0.55; 
@    MULPOP    dipole moment & components:      7.2255;       -5.7234      4.4103      0.0000
 -----------------------------------------------------------------------------
   8  Screening settings (-IFTHRS, JTDIIS, DIFDEN, times)  -14    8    T  1.76D+01  1.77D+01
@  8    -1182.45341944        1.43950D-02   -3.49D-04    8
      Virial theorem: -V/T =      2.002072
@    MULPOP   C_a     0.72; C_b     0.83; C_c     0.90; C_d     0.37; C_e     0.58; C_f     0.70; C_g     0.99; C_h     0.67; C_i     0.35; C_j     0.87; 
@             C_k     0.99; C_l     0.96; C_m    -0.03; C_n     0.39; C_o     0.75; C_p    -0.31; C_q     0.56; C_r    -0.13; C_s     0.61; C_t     0.07; 
@             C_u     0.96; C_v     0.93; C_w     0.96; C_x     0.41; N_a     0.16; N_b     0.45; O_a    -0.60; O_b    -0.73; H_a    -0.49; H_b    -0.55; 
@    MULPOP    dipole moment & components:      6.9735;       -5.6493      4.0885      0.0000
 -----------------------------------------------------------------------------
   9  Screening settings (-IFTHRS, JTDIIS, DIFDEN, times)  -14    9    T  1.76D+01  1.77D+01
@  9    -1182.45347444        5.87041D-03   -5.50D-05    8
      Virial theorem: -V/T =      2.002065
@    MULPOP   C_a     0.72; C_b     0.83; C_c     0.90; C_d     0.37; C_e     0.58; C_f     0.71; C_g     0.99; C_h     0.68; C_i     0.35; C_j     0.88; 
@             C_k     0.99; C_l     0.97; C_m    -0.03; C_n     0.40; C_o     0.75; C_p    -0.32; C_q     0.56; C_r    -0.13; C_s     0.61; C_t     0.07; 
@             C_u     0.96; C_v     0.94; C_w     0.96; C_x     0.41; N_a     0.17; N_b     0.45; O_a    -0.60; O_b    -0.73; H_a    -0.49; H_b    -0.55; 
@    MULPOP    dipole moment & components:      6.8464;       -5.5812      3.9654      0.0000
 -----------------------------------------------------------------------------
  10  Screening settings (-IFTHRS, JTDIIS, DIFDEN, times)  -14   10    T  1.75D+01  1.76D+01
@ 10    -1182.45348973        3.61094D-03   -1.53D-05    8
      Virial theorem: -V/T =      2.002064
@    MULPOP   C_a     0.72; C_b     0.83; C_c     0.90; C_d     0.37; C_e     0.57; C_f     0.71; C_g     0.99; C_h     0.68; C_i     0.34; C_j     0.88; 
@             C_k     0.99; C_l     0.97; C_m    -0.04; C_n     0.40; C_o     0.75; C_p    -0.32; C_q     0.56; C_r    -0.13; C_s     0.61; C_t     0.06; 
@             C_u     0.96; C_v     0.94; C_w     0.96; C_x     0.41; N_a     0.17; N_b     0.45; O_a    -0.60; O_b    -0.73; H_a    -0.49; H_b    -0.55; 
@    MULPOP    dipole moment & components:      6.7517;       -5.5281      3.8762      0.0000
 -----------------------------------------------------------------------------
  11  Screening settings (-IFTHRS, JTDIIS, DIFDEN, times)  -14   11    T  1.75D+01  1.75D+01
@ 11    -1182.45349664        2.19306D-03   -6.91D-06    8
      Virial theorem: -V/T =      2.002065
@    MULPOP   C_a     0.71; C_b     0.84; C_c     0.90; C_d     0.37; C_e     0.57; C_f     0.71; C_g     0.98; C_h     0.68; C_i     0.34; C_j     0.88; 
@             C_k     0.98; C_l     0.97; C_m    -0.04; C_n     0.39; C_o     0.74; C_p    -0.32; C_q     0.56; C_r    -0.13; C_s     0.61; C_t     0.06; 
@             C_u     0.96; C_v     0.94; C_w     0.96; C_x     0.42; N_a     0.17; N_b     0.45; O_a    -0.60; O_b    -0.73; H_a    -0.49; H_b    -0.55; 
@    MULPOP    dipole moment & components:      6.6706;       -5.4801      3.8033      0.0000
 -----------------------------------------------------------------------------
  12  Screening settings (-IFTHRS, JTDIIS, DIFDEN, times)  -14   12    T  1.75D+01  1.76D+01
@ 12    -1182.45349962        8.09596D-04   -2.98D-06    8
      Virial theorem: -V/T =      2.002064
@    MULPOP   C_a     0.71; C_b     0.84; C_c     0.90; C_d     0.38; C_e     0.57; C_f     0.72; C_g     0.98; C_h     0.68; C_i     0.34; C_j     0.89; 
@             C_k     0.98; C_l     0.97; C_m    -0.04; C_n     0.39; C_o     0.74; C_p    -0.32; C_q     0.56; C_r    -0.13; C_s     0.60; C_t     0.06; 
@             C_u     0.96; C_v     0.94; C_w     0.96; C_x     0.42; N_a     0.17; N_b     0.45; O_a    -0.60; O_b    -0.73; H_a    -0.49; H_b    -0.55; 
@    MULPOP    dipole moment & components:      6.5949;       -5.4359      3.7341      0.0000
 -----------------------------------------------------------------------------
  13  Screening settings (-IFTHRS, JTDIIS, DIFDEN, times)  -14   13    T  1.74D+01  1.75D+01
@ 13    -1182.45349995        3.68812D-04   -3.34D-07    8
      Virial theorem: -V/T =      2.002064
@    MULPOP   C_a     0.71; C_b     0.84; C_c     0.90; C_d     0.38; C_e     0.57; C_f     0.72; C_g     0.98; C_h     0.68; C_i     0.34; C_j     0.89; 
@             C_k     0.98; C_l     0.98; C_m    -0.05; C_n     0.39; C_o     0.74; C_p    -0.32; C_q     0.55; C_r    -0.13; C_s     0.60; C_t     0.06; 
@             C_u     0.96; C_v     0.95; C_w     0.96; C_x     0.42; N_a     0.17; N_b     0.45; O_a    -0.60; O_b    -0.73; H_a    -0.49; H_b    -0.55; 
@    MULPOP    dipole moment & components:      6.5681;       -5.4219      3.7071      0.0000
 -----------------------------------------------------------------------------
  14  Screening settings (-IFTHRS, JTDIIS, DIFDEN, times)  -14   14    T  1.73D+01  1.74D+01
@ 14    -1182.45349999        1.76316D-04   -3.78D-08    8
      Virial theorem: -V/T =      2.002064
@    MULPOP   C_a     0.71; C_b     0.84; C_c     0.90; C_d     0.38; C_e     0.57; C_f     0.72; C_g     0.98; C_h     0.68; C_i     0.34; C_j     0.89; 
@             C_k     0.98; C_l     0.98; C_m    -0.05; C_n     0.39; C_o     0.74; C_p    -0.32; C_q     0.55; C_r    -0.13; C_s     0.60; C_t     0.06; 
@             C_u     0.96; C_v     0.95; C_w     0.96; C_x     0.42; N_a     0.17; N_b     0.45; O_a    -0.60; O_b    -0.73; H_a    -0.49; H_b    -0.55; 
@    MULPOP    dipole moment & components:      6.5606;       -5.4186      3.6986      0.0000
 -----------------------------------------------------------------------------
  15  Screening settings (-IFTHRS, JTDIIS, DIFDEN, times)  -14   15    T  1.73D+01  1.74D+01
@ 15    -1182.45350000        8.71720D-05   -8.51D-09    8
      Virial theorem: -V/T =      2.002064
@    MULPOP   C_a     0.71; C_b     0.84; C_c     0.90; C_d     0.38; C_e     0.57; C_f     0.72; C_g     0.98; C_h     0.68; C_i     0.34; C_j     0.89; 
@             C_k     0.98; C_l     0.98; C_m    -0.05; C_n     0.39; C_o     0.74; C_p    -0.32; C_q     0.55; C_r    -0.14; C_s     0.60; C_t     0.06; 
@             C_u     0.96; C_v     0.95; C_w     0.96; C_x     0.42; N_a     0.17; N_b     0.45; O_a    -0.60; O_b    -0.73; H_a    -0.49; H_b    -0.55; 
@    MULPOP    dipole moment & components:      6.5563;       -5.4175      3.6927      0.0000
 -----------------------------------------------------------------------------
  16  Screening settings (-IFTHRS, JTDIIS, DIFDEN, times)  -14   16    T  1.73D+01  1.74D+01
@ 16    -1182.45350000        4.62885D-05   -1.53D-09    8
      Virial theorem: -V/T =      2.002064
@    MULPOP   C_a     0.71; C_b     0.84; C_c     0.90; C_d     0.38; C_e     0.57; C_f     0.72; C_g     0.98; C_h     0.68; C_i     0.34; C_j     0.89; 
@             C_k     0.99; C_l     0.98; C_m    -0.05; C_n     0.39; C_o     0.74; C_p    -0.32; C_q     0.55; C_r    -0.14; C_s     0.60; C_t     0.06; 
@             C_u     0.96; C_v     0.95; C_w     0.96; C_x     0.42; N_a     0.17; N_b     0.45; O_a    -0.60; O_b    -0.73; H_a    -0.49; H_b    -0.55; 
@    MULPOP    dipole moment & components:      6.5545;       -5.4174      3.6896      0.0000
 -----------------------------------------------------------------------------
  17  Screening settings (-IFTHRS, JTDIIS, DIFDEN, times)  -14   17    T  1.73D+01  1.73D+01
@ 17    -1182.45350000        3.65863D-05   -8.16D-10    8
      Virial theorem: -V/T =      2.002064
@    MULPOP   C_a     0.71; C_b     0.84; C_c     0.90; C_d     0.38; C_e     0.57; C_f     0.72; C_g     0.98; C_h     0.68; C_i     0.34; C_j     0.89; 
@             C_k     0.99; C_l     0.98; C_m    -0.05; C_n     0.39; C_o     0.74; C_p    -0.32; C_q     0.55; C_r    -0.14; C_s     0.60; C_t     0.06; 
@             C_u     0.96; C_v     0.95; C_w     0.96; C_x     0.42; N_a     0.17; N_b     0.45; O_a    -0.60; O_b    -0.73; H_a    -0.49; H_b    -0.55; 
@    MULPOP    dipole moment & components:      6.5529;       -5.4175      3.6866      0.0000
 -----------------------------------------------------------------------------
  18  Screening settings (-IFTHRS, JTDIIS, DIFDEN, times)  -14   18    T  1.73D+01  1.74D+01
@ 18    -1182.45350000        2.67376D-05   -5.35D-10    8
      Virial theorem: -V/T =      2.002064
@    MULPOP   C_a     0.71; C_b     0.84; C_c     0.90; C_d     0.38; C_e     0.57; C_f     0.72; C_g     0.98; C_h     0.68; C_i     0.34; C_j     0.89; 
@             C_k     0.99; C_l     0.98; C_m    -0.05; C_n     0.39; C_o     0.74; C_p    -0.32; C_q     0.55; C_r    -0.14; C_s     0.60; C_t     0.06; 
@             C_u     0.96; C_v     0.95; C_w     0.96; C_x     0.42; N_a     0.17; N_b     0.45; O_a    -0.60; O_b    -0.73; H_a    -0.49; H_b    -0.55; 
@    MULPOP    dipole moment & components:      6.5511;       -5.4177      3.6832      0.0000
 -----------------------------------------------------------------------------
  19  Screening settings (-IFTHRS, JTDIIS, DIFDEN, times)  -14   19    T  1.73D+01  1.74D+01
@ 19    -1182.45350000        2.20323D-05   -5.00D-10    8
      Virial theorem: -V/T =      2.002064
@    MULPOP   C_a     0.71; C_b     0.84; C_c     0.90; C_d     0.38; C_e     0.57; C_f     0.72; C_g     0.98; C_h     0.68; C_i     0.34; C_j     0.89; 
@             C_k     0.99; C_l     0.98; C_m    -0.05; C_n     0.39; C_o     0.74; C_p    -0.32; C_q     0.55; C_r    -0.14; C_s     0.59; C_t     0.06; 
@             C_u     0.96; C_v     0.95; C_w     0.96; C_x     0.42; N_a     0.17; N_b     0.45; O_a    -0.60; O_b    -0.73; H_a    -0.49; H_b    -0.55; 
@    MULPOP    dipole moment & components:      6.5491;       -5.4179      3.6792      0.0000
 -----------------------------------------------------------------------------
  20  Screening settings (-IFTHRS, JTDIIS, DIFDEN, times)  -14   20    T  1.73D+01  1.74D+01
@ 20    -1182.45350000        1.89797D-05   -3.60D-10    8
      Virial theorem: -V/T =      2.002064
@    MULPOP   C_a     0.71; C_b     0.84; C_c     0.90; C_d     0.38; C_e     0.57; C_f     0.72; C_g     0.98; C_h     0.68; C_i     0.34; C_j     0.89; 
@             C_k     0.99; C_l     0.98; C_m    -0.05; C_n     0.39; C_o     0.74; C_p    -0.32; C_q     0.55; C_r    -0.14; C_s     0.59; C_t     0.06; 
@             C_u     0.96; C_v     0.95; C_w     0.97; C_x     0.42; N_a     0.17; N_b     0.45; O_a    -0.60; O_b    -0.73; H_a    -0.49; H_b    -0.55; 
@    MULPOP    dipole moment & components:      6.5474;       -5.4183      3.6758      0.0000
 -----------------------------------------------------------------------------
  21  Screening settings (-IFTHRS, JTDIIS, DIFDEN, times)  -14   21    T  1.74D+01  1.75D+01
@ 21    -1182.45350000        1.49941D-05   -4.63D-10    8
      Virial theorem: -V/T =      2.002064
@    MULPOP   C_a     0.71; C_b     0.84; C_c     0.90; C_d     0.38; C_e     0.57; C_f     0.72; C_g     0.98; C_h     0.69; C_i     0.34; C_j     0.89; 
@             C_k     0.99; C_l     0.98; C_m    -0.05; C_n     0.38; C_o     0.74; C_p    -0.32; C_q     0.55; C_r    -0.14; C_s     0.59; C_t     0.05; 
@             C_u     0.96; C_v     0.95; C_w     0.97; C_x     0.42; N_a     0.17; N_b     0.45; O_a    -0.60; O_b    -0.73; H_a    -0.49; H_b    -0.55; 
@    MULPOP    dipole moment & components:      6.5445;       -5.4187      3.6698      0.0000
 -----------------------------------------------------------------------------
  22  Screening settings (-IFTHRS, JTDIIS, DIFDEN, times)  -14   22    T  1.74D+01  1.75D+01
@ 22    -1182.45350001        8.91708D-06   -4.33D-10    8

@ *** DIIS converged in  22 iterations !
@     Converged SCF energy, gradient:  -1182.453500005374    8.92D-06
    - total time used in SIRFCK :              0.00 seconds


 *** SCF orbital energy analysis ***

 Only the 20 lowest virtual orbital energies printed in each symmetry.

 Number of electrons :  200
 Orbital occupations :  100

 Sym       Hartree-Fock orbital energies

1 A     -20.59777127   -20.59496024   -15.84554814   -15.59966002   -11.30825265
        -11.29570471   -11.29418024   -11.28446532   -11.27638519   -11.27050760
        -11.26590810   -11.26573589   -11.26217265   -11.26140124   -11.25900333
        -11.25868515   -11.25736650   -11.25626269   -11.25594349   -11.25395634
        -11.25319216   -11.25273436   -11.25033821   -11.24721139   -11.24363053
        -11.23932790   -11.23447592   -11.23205499    -1.58377522    -1.38138611
         -1.23929909    -1.14635353    -1.13162846    -1.12230516    -1.11358806
         -1.10297332    -1.08946534    -1.07318559    -1.05434153    -1.03309711
         -1.00961419    -0.98407678    -0.95706783    -0.93812363    -0.89210654
         -0.86285576    -0.83436933    -0.80961388    -0.79202064    -0.78571196
         -0.77735795    -0.77283814    -0.76581969    -0.76236499    -0.75254894
         -0.75042273    -0.73633471    -0.71752786    -0.71372675    -0.69646614
         -0.68082648    -0.67544313    -0.66931425    -0.65459526    -0.65013746
         -0.63324448    -0.62678370    -0.61397309    -0.60212706    -0.59500161
         -0.58232498    -0.56966803    -0.56703959    -0.55419189    -0.54762481
         -0.54296461    -0.53369334    -0.53024476    -0.52610866    -0.52339866
         -0.51983381    -0.51439107    -0.50913259    -0.50396314    -0.49924413
         -0.49703562    -0.48700715    -0.48096566    -0.47769623    -0.47589478
         -0.46161121    -0.44327482    -0.43934811    -0.42081013    -0.39454532
         -0.36457334    -0.33124127    -0.29533808    -0.25866601    -0.22440388
          0.00085448     0.00371411     0.00526477     0.00678307     0.00744727
          0.00850523     0.01138057     0.01257282     0.01399531     0.01558026
          0.01711776     0.01963918     0.01968617     0.02107632     0.02177399
          0.02361725     0.02383829     0.02552050     0.02592005     0.02625354

    E(LUMO) :     0.00085448 au (symmetry 1)
  - E(HOMO) :    -0.22440388 au (symmetry 1)
  ------------------------------------------
    gap     :     0.22525836 au

 --- Writing SIRIFC interface file

 CPU and wall time for SCF :     676.540     680.166


                       .-----------------------------------.
                       | --- Final results from SIRIUS --- |
                       `-----------------------------------'


@    Spin multiplicity:           1
@    Spatial symmetry:            1 ( irrep  A   in C1  )
@    Total charge of molecule:    0

@    Final HF energy:           -1182.453500005374                 
@    Nuclear repulsion:          1740.311733291155
@    Electronic energy:         -2922.765233296529

@    Final gradient norm:           0.000008917084

 
     Date and time (Linux)  : Thu May 29 17:33:19 2025
     Host name              : xm009                                   

File label for MO orbitals:  29May25   FOCKDIIS

 (Only coefficients > 0.0100 are printed.)

 Molecular orbitals for symmetry species 1  (A  )
 ------------------------------------------------

    Orbital        91       92       93       94       95       96       97
   8 C_a :2pz   -0.1223  -0.0945   0.0013   0.2246  -0.1126  -0.1335   0.2249
  14 C_a :2pz   -0.2930  -0.0322  -0.0361   0.3101  -0.0779  -0.0322   0.0131
  17 C_a :2pz    0.0214   0.0874  -0.0285  -0.0242   0.0711  -0.0857  -0.1449
  19 C_a :3d1-   0.0034  -0.0101   0.0012   0.0061   0.0071  -0.0144   0.0050
  29 C_a :3d1-   0.1664   0.3987  -0.0716   0.1198   0.0636  -0.0726   0.0268
  31 C_a :3d1+  -0.0414  -0.1103   0.0130  -0.0550  -0.0136   0.0358  -0.0122
  40 C_b :2pz   -0.0347  -0.1799   0.0153   0.1906   0.0331  -0.2166   0.1253
  46 C_b :2pz    0.0238  -0.2945   0.0404   0.3453   0.1275  -0.0798  -0.1201
  49 C_b :2pz   -0.0539  -0.0156   0.0454  -0.0263   0.0063   0.0664  -0.0142
  51 C_b :3d1-   0.0082  -0.0013   0.0007  -0.0102   0.0113   0.0038  -0.0167
  61 C_b :3d1-   0.0462   0.3383  -0.0585   0.2324   0.1079  -0.1579   0.0258
  63 C_b :3d1+  -0.0193  -0.1228   0.0140  -0.0480  -0.0443   0.0473   0.0093
  72 C_c :2pz    0.1025  -0.2211   0.0281   0.0188   0.2178  -0.1083  -0.1829
  78 C_c :2pz    0.1626  -0.4229   0.0746   0.1108   0.1977  -0.1019   0.0758
  81 C_c :2pz    0.0091  -0.0647  -0.0121   0.0338  -0.0721   0.1076   0.0846
  83 C_c :3d1-   0.0086  -0.0034   0.0008  -0.0098   0.0092   0.0081  -0.0146
  93 C_c :3d1-   0.1159   0.2150  -0.0335   0.3494   0.1835  -0.1806   0.0047
  95 C_c :3d1+  -0.0382  -0.0511   0.0106  -0.0972  -0.0746   0.0495   0.0158
 104 C_d :2pz    0.1742  -0.1732   0.0265  -0.1092   0.2095   0.0505  -0.2220
 110 C_d :2pz    0.3487  -0.3361   0.0209  -0.1886   0.1636   0.1417   0.0101
 113 C_d :2pz    0.0313  -0.0123  -0.0160   0.0148  -0.0294   0.0094   0.1119
 115 C_d :3d1-   0.0011   0.0095  -0.0010  -0.0068  -0.0099   0.0117   0.0095
 125 C_d :3d1-   0.2428  -0.0186  -0.0130   0.3309   0.2340  -0.1615   0.0291
 127 C_d :3d1+  -0.0450  -0.0048   0.0108  -0.0963  -0.0465   0.0342  -0.0199
 136 C_e :2pz    0.2283  -0.0283   0.0119  -0.2270   0.0245   0.2298   0.0037
 142 C_e :2pz    0.4437  -0.0526   0.0304  -0.3662   0.1230   0.0757  -0.0845
 145 C_e :2pz   -0.0162   0.0151   0.0249  -0.0078   0.0372  -0.0858  -0.0092
 147 C_e :3d1-   0.0054   0.0080  -0.0008  -0.0067  -0.0110   0.0074   0.0137
 157 C_e :3d1-   0.3700  -0.0359   0.0009   0.1978   0.3547  -0.1448   0.0310
 159 C_e :3d1+  -0.1123   0.0215  -0.0012  -0.0366  -0.0878   0.0280  -0.0258
 168 C_f :2pz    0.2169   0.0819  -0.0025  -0.2041  -0.1184   0.1775   0.1551
 174 C_f :2pz    0.4169   0.1938   0.0019  -0.3074  -0.1982   0.0185   0.0454
 177 C_f :2pz    0.0180   0.0429  -0.0244  -0.0079   0.0323  -0.0907  -0.1393
 179 C_f :3d1-  -0.0066   0.0066  -0.0011   0.0094  -0.0074  -0.0137   0.0049
 189 C_f :3d1-   0.6334  -0.0600  -0.0018   0.0665   0.2653  -0.0702  -0.0219
 191 C_f :3d1+  -0.1566   0.0266  -0.0041  -0.0349  -0.0778   0.0413  -0.0011
 200 C_g :2pz    0.1445   0.2068  -0.0221  -0.0486  -0.2306  -0.0814   0.1818
 206 C_g :2pz    0.2713   0.3753  -0.0504  -0.1455  -0.3062   0.0540   0.0156
 209 C_g :2pz   -0.0027   0.0215  -0.0054  -0.0298   0.0207   0.0174  -0.0541
 211 C_g :3d1-  -0.0024   0.0083  -0.0012   0.0089  -0.0051  -0.0144  -0.0024
 221 C_g :3d1-   0.7072   0.1012   0.0045  -0.0760   0.2349  -0.1322   0.0499
 223 C_g :3d1+  -0.2066  -0.0490  -0.0021   0.0247  -0.0568   0.0538  -0.0124
 232 C_h :2pz    0.0652   0.2292  -0.0284   0.0811  -0.1711  -0.1986   0.0335
 238 C_h :2pz    0.1201   0.5024  -0.0616   0.2060  -0.1253  -0.0683  -0.0987
 241 C_h :2pz   -0.0483  -0.0641   0.0411   0.0088  -0.0437   0.1396   0.0875
 243 C_h :3d1-  -0.0081  -0.0050   0.0004   0.0081   0.0125  -0.0006  -0.0156
 248 C_h :3d1-  -0.0043  -0.0015  -0.0000   0.0071   0.0066  -0.0034  -0.0106
 253 C_h :3d1-   0.8629   0.2760  -0.0417   0.0045   0.0491  -0.0403  -0.0282
 255 C_h :3d1+  -0.2298  -0.0577   0.0101   0.0062  -0.0330   0.0003   0.0221
 264 C_i :2pz   -0.0642   0.1718  -0.0253   0.2221   0.0495  -0.1695  -0.2255
 270 C_i :2pz   -0.0712   0.3684  -0.0425   0.3822  -0.0245  -0.1597  -0.0039
 273 C_i :2pz    0.0346  -0.0298  -0.0201   0.0372  -0.0563   0.0559   0.0922
 275 C_i :3d1-  -0.0079  -0.0021   0.0000   0.0082   0.0126   0.0041  -0.0109
 285 C_i :3d1-   0.8306   0.4895  -0.0428   0.0451   0.0958  -0.1927  -0.0068
 287 C_i :3d1+  -0.2139  -0.1410   0.0157  -0.0281  -0.0269   0.0397   0.0150
 296 C_j :2pz   -0.1428   0.0805  -0.0150   0.2237   0.1734  -0.0233  -0.1982
 302 C_j :2pz   -0.3351   0.0884  -0.0244   0.3543   0.1857   0.0457   0.0034
 305 C_j :2pz    0.0484   0.0792  -0.0315   0.0027   0.0664  -0.1383  -0.0153
 307 C_j :3d1-  -0.0030  -0.0100   0.0013  -0.0077   0.0036   0.0143   0.0139
 317 C_j :3d1-   0.7590   0.5732  -0.0774   0.3181   0.0814  -0.1233  -0.0329
 319 C_j :3d1+  -0.2026  -0.1374   0.0191  -0.0592  -0.0022   0.0223  -0.0039
 328 C_k :2pz   -0.2265  -0.0808   0.0058   0.1025   0.2218   0.2131   0.0834
 334 C_k :2pz   -0.3604  -0.1011  -0.0004   0.2521   0.2892   0.1377  -0.0591
 337 C_k :2pz   -0.0462   0.0230   0.0276  -0.0222   0.0407  -0.0854  -0.0990
 339 C_k :3d1-  -0.0073  -0.0096   0.0012  -0.0068   0.0015   0.0112   0.0154
 349 C_k :3d1-   0.6147   0.6005  -0.0683   0.3496   0.2088  -0.1690  -0.0186
 351 C_k :3d1+  -0.1356  -0.1418   0.0156  -0.0912  -0.0557   0.0474   0.0005
 360 C_l :2pz   -0.2465  -0.1702   0.0186  -0.0254   0.1273   0.2183   0.2008
 363 C_l :2pz    0.0120   0.0110  -0.0013   0.0091   0.0052   0.0028  -0.0001
 366 C_l :2pz   -0.4161  -0.3017   0.0430  -0.0634   0.1289   0.0447   0.0227
 369 C_l :2pz   -0.0403  -0.0801   0.0140  -0.0214  -0.0723   0.0977  -0.0193
 371 C_l :3d1-   0.0041  -0.0028   0.0005  -0.0102  -0.0136  -0.0101  -0.0004
 381 C_l :3d1-   0.4069   0.4652  -0.0690   0.4794   0.3082  -0.0330  -0.0459
 383 C_l :3d1+  -0.1185  -0.1291   0.0178  -0.1206  -0.0634   0.0333   0.0178
 392 C_m :2pz   -0.2301  -0.2414   0.0301  -0.1977  -0.1043   0.0162   0.1341
 395 C_m :2pz    0.0070   0.0037  -0.0003  -0.0024  -0.0088  -0.0112  -0.0073
 398 C_m :2pz   -0.3901  -0.4206   0.0470  -0.2869  -0.1367   0.0984  -0.0268
 401 C_m :2pz    0.0352  -0.0033  -0.0189   0.0182  -0.0019   0.0621   0.0722
 403 C_m :3d1-  -0.0017  -0.0056   0.0008  -0.0099  -0.0128  -0.0123  -0.0071
 413 C_m :3d1-   0.2762   0.3573  -0.0429   0.3396   0.2866  -0.1107  -0.0515
 415 C_m :3d1+  -0.0594  -0.0783   0.0090  -0.0788  -0.0740   0.0165  -0.0012
 424 C_n :2pz   -0.1787  -0.2202   0.0285  -0.2317  -0.2030  -0.1352  -0.0358
 427 C_n :2pz    0.0102   0.0111  -0.0014   0.0119   0.0121   0.0119   0.0105
 430 C_n :2pz   -0.1840  -0.2464   0.0347  -0.2637  -0.1539   0.0985   0.0642
 433 C_n :2pz    0.0285   0.0567  -0.0032   0.0272   0.0522  -0.0422   0.0165
 435 C_n :3d1-   0.0085   0.0080  -0.0010   0.0049  -0.0007  -0.0075  -0.0142
 440 C_n :3d1-   0.0028   0.0026  -0.0003  -0.0000  -0.0045  -0.0086  -0.0117
 445 C_n :3d1-   0.0935   0.1478  -0.0261   0.2411   0.2299   0.0222  -0.0412
 447 C_n :3d1+  -0.0353  -0.0527   0.0090  -0.0799  -0.0783  -0.0222   0.0022
 456 C_o :2pz   -0.0707  -0.1136   0.0155  -0.1586  -0.1983  -0.2287  -0.2446
 462 C_o :2pz   -0.1031  -0.1575   0.0258  -0.2219  -0.2096  -0.0287   0.0518
 465 C_o :2pz   -0.0231  -0.0149   0.0075  -0.0195  -0.0180  -0.0223  -0.0323
 477 C_o :3d1-   0.0802   0.1144  -0.0138   0.1348   0.1591  -0.0210  -0.0168
 479 C_o :3d1+  -0.0097  -0.0120   0.0023  -0.0171  -0.0169   0.0040   0.0178
 488 C_p :2pz    0.0253   0.0070  -0.0003  -0.0210  -0.0556  -0.0941  -0.1332
 491 C_p :2pz   -0.0102  -0.0114   0.0015  -0.0121  -0.0120  -0.0119  -0.0118
 494 C_p :2pz   -0.0771  -0.1237   0.0159  -0.1826  -0.2422  -0.0532  -0.0687
 497 C_p :2pz   -0.0125  -0.0213   0.0006  -0.0161  -0.0228   0.0037  -0.0066
 499 C_p :3d1-   0.0084   0.0114  -0.0015   0.0143   0.0168   0.0190   0.0202
 509 C_p :3d1-   0.0140   0.0221  -0.0036   0.0401   0.0502   0.0007  -0.0014
 511 C_p :3d1+   0.0097   0.0109  -0.0008   0.0051   0.0068  -0.0015   0.0052
 520 C_q :2pz    0.1659  -0.1907   0.0360   0.2182  -0.2357   0.2434  -0.2362
 526 C_q :2pz    0.4281  -0.0880  -0.1098   0.2949  -0.0075  -0.0491  -0.0058
 529 C_q :2pz    0.0139   0.0124   0.0327   0.0063   0.0078   0.0003  -0.0317
 531 C_q :3d1-   0.0092  -0.0100  -0.0012   0.0095  -0.0088   0.0071  -0.0048
 536 C_q :3d1-   0.0100  -0.0111  -0.0229   0.0088  -0.0071   0.0061  -0.0054
 541 C_q :3d1-   0.0982  -0.0172  -0.0130   0.0671   0.0005  -0.0135   0.0009
 543 C_q :3d1+  -0.0043   0.0112  -0.0059  -0.0065   0.0089  -0.0112   0.0121
 552 C_r :2pz    0.1919  -0.1997   0.0268   0.1972  -0.1782   0.1454  -0.1023
 555 C_r :2pz   -0.0123   0.0133   0.0272  -0.0055   0.0014   0.0030  -0.0055
 558 C_r :2pz    0.2702  -0.1739   0.0693   0.1057   0.0429  -0.1017   0.0959
 561 C_r :2pz    0.0360  -0.0457  -0.0675   0.0329  -0.0455   0.0317   0.0200
 563 C_r :3d1-  -0.0040   0.0065  -0.0011  -0.0100   0.0135  -0.0167   0.0187
 570 C_r :3d1+   0.0023  -0.0034  -0.0101   0.0027  -0.0029   0.0030  -0.0032
 573 C_r :3d1-   0.2459   0.0069  -0.0293   0.1013   0.1140  -0.1536   0.0984
 575 C_r :3d1+  -0.0545   0.0134   0.0140  -0.0243  -0.0191   0.0374  -0.0379
 584 C_s :2pz    0.1655  -0.1147   0.0254   0.0404   0.0534  -0.1475   0.2198
 587 C_s :2pz   -0.0068   0.0073  -0.0131  -0.0090   0.0086  -0.0079   0.0091
 590 C_s :2pz    0.3127   0.0509   0.0277  -0.0547   0.2899  -0.1946   0.0503
 593 C_s :2pz   -0.0169  -0.0273  -0.0085  -0.0037  -0.0133   0.0008   0.0818
 595 C_s :3d1-  -0.0002   0.0043   0.0001  -0.0088   0.0125  -0.0142   0.0132
 605 C_s :3d1-   0.3781  -0.1513  -0.0316   0.2001   0.0184  -0.0510   0.0164
 607 C_s :3d1+  -0.1572   0.0796   0.0094  -0.0966   0.0142   0.0108  -0.0092
 616 C_t :2pz    0.0896  -0.0051   0.0125  -0.0878   0.1682  -0.2116   0.2049
 622 C_t :2pz    0.3799   0.0615   0.0475  -0.0299   0.2049  -0.0913  -0.0410
 625 C_t :2pz   -0.0392   0.0631   0.0882  -0.0413   0.0769  -0.0592  -0.0771
 627 C_t :3d1-  -0.0094   0.0099  -0.0014  -0.0079   0.0027   0.0053  -0.0139
 637 C_t :3d1-   0.4916   0.0387   0.0368   0.0404   0.3411  -0.3183   0.1540
 639 C_t :3d1+  -0.1683  -0.0064  -0.0099  -0.0389  -0.0898   0.0854  -0.0266
 648 C_u :2pz   -0.0588   0.1630  -0.0102  -0.2203   0.1932  -0.0790  -0.0824
 654 C_u :2pz    0.0070   0.1219   0.0085  -0.1826   0.0070   0.0834  -0.0014
 657 C_u :2pz    0.0439   0.0474  -0.0443   0.0070   0.0264  -0.0150  -0.1360
 659 C_u :3d1-  -0.0085   0.0098  -0.0014  -0.0069  -0.0003   0.0091  -0.0151
 669 C_u :3d1-   0.6657  -0.1180  -0.0128   0.1812   0.1520  -0.0925  -0.0185
 671 C_u :3d1+  -0.2028  -0.0005   0.0065  -0.0295  -0.0832   0.0447   0.0109
 680 C_v :2pz   -0.1420   0.2094  -0.0213  -0.1900   0.0769   0.0770  -0.1935
 686 C_v :2pz   -0.2744   0.4305  -0.1039  -0.2773   0.0313   0.0738   0.0036
 689 C_v :2pz    0.0064  -0.0510  -0.0376   0.0173  -0.0761   0.0880   0.1164
 691 C_v :3d1-  -0.0027  -0.0033  -0.0002   0.0103  -0.0140   0.0102   0.0014
 701 C_v :3d1-   0.5046   0.1748   0.0245  -0.0939   0.3487  -0.2549   0.1370
 703 C_v :3d1+  -0.1471  -0.0541  -0.0031   0.0354  -0.1231   0.0930  -0.0578
 712 C_w :2pz   -0.2136   0.1715  -0.0270  -0.0155  -0.1632   0.2257  -0.1071
 718 C_w :2pz   -0.3084   0.4353  -0.0215  -0.0333  -0.0652   0.0326  -0.0622
 721 C_w :2pz   -0.0511  -0.0715   0.0602   0.0005  -0.0476   0.0454   0.1648
 723 C_w :3d1-  -0.0057  -0.0015  -0.0004   0.0099  -0.0125   0.0052   0.0078
 733 C_w :3d1-   0.4878   0.2394  -0.0516  -0.0264   0.2160  -0.0760   0.0022
 735 C_w :3d1+  -0.1161  -0.0761   0.0219   0.0131  -0.0418   0.0065  -0.0090
 744 C_x :2pz   -0.2037   0.0787  -0.0197   0.1123  -0.2195   0.1429   0.0560
 750 C_x :2pz   -0.3722   0.0738  -0.0380   0.2764  -0.3267   0.0741  -0.0017
 753 C_x :2pz    0.0365   0.0324  -0.0266   0.0179   0.0381  -0.0980  -0.0855
 755 C_x :3d1-   0.0067  -0.0105   0.0013   0.0066   0.0050  -0.0151   0.0118
 765 C_x :3d1-   0.2289   0.4585  -0.0296  -0.0781   0.2276  -0.1905   0.0812
 767 C_x :3d1+  -0.0779  -0.1070   0.0038   0.0257  -0.0584   0.0533  -0.0314
 776 N_a :2pz    0.1431   0.1661  -0.0215   0.1821   0.1918   0.1980   0.2000
 779 N_a :2pz    0.0122   0.0149  -0.0019   0.0172   0.0194   0.0215   0.0236
 782 N_a :2pz    0.0137   0.0192  -0.0024   0.0241   0.0328   0.0655   0.0725
 785 N_a :2pz    0.0182   0.0195  -0.0030   0.0217   0.0240   0.0104   0.0126
 808 N_b :2pz   -0.0224   0.0213   0.0045  -0.0164   0.0101  -0.0020  -0.0068
 814 N_b :2pz   -0.0049   0.0482   0.0313  -0.0337   0.0638  -0.0582   0.0340
 817 N_b :2pz   -0.0684   0.0327   0.0153  -0.0457   0.0235  -0.0209   0.0174
 819 N_b :3d1-   0.0056  -0.0104  -0.0399   0.0052  -0.0063   0.0068  -0.0068
 821 N_b :3d1+  -0.0037   0.0004  -0.0404  -0.0070   0.0069  -0.0071   0.0069
 829 N_b :3d1-  -0.0077   0.0204  -0.0318  -0.0151   0.0206  -0.0155   0.0087
 831 N_b :3d1+   0.0108  -0.0131  -0.0209   0.0161  -0.0174   0.0172  -0.0150
 840 O_a :2pz   -0.0677   0.1395   0.6297  -0.0533   0.0683  -0.0741   0.0746
 843 O_a :2pz   -0.0046   0.0101   0.0486  -0.0036   0.0049  -0.0055   0.0059
 846 O_a :2pz   -0.0032   0.0131   0.0192   0.0004   0.0000   0.0014   0.0011
 849 O_a :2pz    0.0240  -0.0168  -0.0161   0.0180  -0.0121   0.0098  -0.0054
 851 O_a :3d1-  -0.0017   0.0032   0.0133  -0.0012   0.0014  -0.0013   0.0011
 856 O_a :3d1-  -0.0034   0.0066   0.0287  -0.0026   0.0030  -0.0030   0.0027
 872 O_b :2pz   -0.0408  -0.0174  -0.6507  -0.0834   0.0778  -0.0767   0.0736
 875 O_b :2pz   -0.0012  -0.0030  -0.0499  -0.0052   0.0055  -0.0061   0.0067
 878 O_b :2pz   -0.0018  -0.0114  -0.0498  -0.0058   0.0047  -0.0123   0.0198
 881 O_b :2pz    0.0238  -0.0062   0.0046   0.0131  -0.0014   0.0017  -0.0050
 885 O_b :3d1+   0.0011   0.0002   0.0134   0.0018  -0.0015   0.0013  -0.0010
 890 O_b :3d1+   0.0014   0.0008   0.0287   0.0034  -0.0033   0.0032  -0.0029
 909 H_a :2pz    0.0185   0.0042   0.0017  -0.0216   0.0100  -0.0079   0.0187
 922 H_b :2pz    0.0052   0.0298   0.0025  -0.0229   0.0070  -0.0174   0.0132
 935 H_c :2pz   -0.0132   0.0228  -0.0045  -0.0074  -0.0162   0.0066  -0.0148
 948 H_d :2pz   -0.0241   0.0124  -0.0068   0.0110  -0.0194   0.0069  -0.0143
 961 H_e :2pz   -0.0216   0.0086  -0.0002   0.0210  -0.0001  -0.0067   0.0043
 974 H_f :2pz   -0.0192  -0.0062   0.0043   0.0225   0.0167  -0.0058   0.0089
 987 H_g :2pz   -0.0160  -0.0275   0.0006   0.0123   0.0108   0.0067   0.0084
1000 H_h :2pz   -0.0086  -0.0341   0.0008  -0.0148   0.0049   0.0044   0.0055
1013 H_i :2pz    0.0038  -0.0185   0.0050  -0.0279   0.0064  -0.0107  -0.0123
1026 H_j :2pz    0.0198  -0.0002   0.0026  -0.0204  -0.0069  -0.0052  -0.0120
1039 H_k :2pz    0.0221   0.0065  -0.0019  -0.0102  -0.0187   0.0164   0.0168
1052 H_l :2pz    0.0177   0.0123  -0.0024   0.0007  -0.0135   0.0056   0.0156
1065 H_m :2pz    0.0175   0.0210  -0.0021   0.0129   0.0038  -0.0260  -0.0140
1078 H_n :2pz    0.0133   0.0200  -0.0024   0.0206   0.0161  -0.0202  -0.0165
1091 H_o :2pz    0.0014   0.0060  -0.0008   0.0123   0.0138   0.0127   0.0085
1104 H_p :2pz   -0.0059  -0.0057   0.0004   0.0005   0.0057   0.0207   0.0163
1117 H_q :2pz   -0.0068  -0.0087   0.0011  -0.0099  -0.0101   0.0004   0.0017
1143 H_s :2pz   -0.0065   0.0180   0.0059  -0.0164   0.0218  -0.0197   0.0128
1156 H_t :2pz   -0.0168   0.0229  -0.0013  -0.0166   0.0147  -0.0116   0.0108
1169 H_u :2pz   -0.0265  -0.0076  -0.0028   0.0006  -0.0280   0.0266  -0.0087
1182 H_v :2pz   -0.0180  -0.0260  -0.0132   0.0169  -0.0408   0.0296  -0.0101
1195 H_w :2pz    0.0018  -0.0049   0.0011   0.0116   0.0058  -0.0190   0.0074
1208 H_x :2pz    0.0152  -0.0009   0.0127   0.0047   0.0300  -0.0328   0.0052
1221 H_y :2pz    0.0169  -0.0268   0.0020   0.0043   0.0005   0.0118  -0.0118
1234 H_z :2pz    0.0175  -0.0266  -0.0032  -0.0088  -0.0072   0.0248  -0.0030

    Orbital        98       99      100      101      102      103      104
   3 C_a :1s     0.0000   0.0000   0.0000  -0.0411   0.0000  -0.0415   0.0094
   4 C_a :1s     0.0000  -0.0000   0.0000  -0.3939  -0.0000  -0.4179   0.3296
   5 C_a :1s     0.0000   0.0000  -0.0000  -0.6688  -0.0000  -6.0886   1.5846
   8 C_a :2pz    0.0310   0.2189  -0.1885   0.0000   0.1563  -0.0000   0.0000
   9 C_a :2px    0.0000   0.0000   0.0000  -0.0452   0.0000  -0.0134   0.0354
[...]

       No.  Residual tot.,    conf., and orb.    Bnorm      Frequency 
      ----------------------------------------------------------------
         1    1.86929D-01  0.00D+00  1.87D-01  1.10D+02    0.00000D+00
         2    1.93227D-01  0.00D+00  1.93D-01  1.14D+02    1.60000D-02
         3    2.14796D-01  0.00D+00  2.15D-01  1.28D+02    3.20000D-02

 ** RSPCTL MICROITERATION NUMBER    7

       No.  Residual tot.,    conf., and orb.    Bnorm      Frequency 
      ----------------------------------------------------------------
         1    5.88024D-02  0.00D+00  5.88D-02  1.10D+02    0.00000D+00
         2    6.06138D-02  0.00D+00  6.06D-02  1.14D+02    1.60000D-02
         3    6.70500D-02  0.00D+00  6.70D-02  1.28D+02    3.20000D-02

 *** THE REQUESTED    3 SOLUTION VECTORS CONVERGED

 Convergence of RSP solution vectors, threshold = 1.00D-03
 ---------------------------------------------------------------
 (dimension of paired reduced space:   42)
 RSP solution vector no.    1; norm of residual   5.36D-04
 RSP solution vector no.    2; norm of residual   5.32D-04
 RSP solution vector no.    3; norm of residual   5.24D-04

 *** RSPCTL MICROITERATIONS CONVERGED

@ QRLRVE: SINGLET SOLUTION FOR SYMMETRY    1  ( A  )    LABEL   YDIPLEN     FREQUENCY   0.000000D+00

@ QRLRVE:  << XDIPLEN  ; YDIPLEN  >> (   0.00000):    -344.482941365    

@ QRLRVE:  << YDIPLEN  ; YDIPLEN  >> (   0.00000):     2222.30380938    

@ QRLRVE:  << ZDIPLEN  ; YDIPLEN  >> (   0.00000):    9.928908965355E-14

@ QRLRVE: SINGLET SOLUTION FOR SYMMETRY    1  ( A  )    LABEL   YDIPLEN     FREQUENCY   0.160000D-01

@ QRLRVE:  << XDIPLEN  ; YDIPLEN  >> (   0.01600):    -354.166398603    

@ QRLRVE:  << YDIPLEN  ; YDIPLEN  >> (   0.01600):     2277.48131992    

@ QRLRVE:  << ZDIPLEN  ; YDIPLEN  >> (   0.01600):    1.025193286517E-13

@ QRLRVE: SINGLET SOLUTION FOR SYMMETRY    1  ( A  )    LABEL   YDIPLEN     FREQUENCY   0.320000D-01

@ QRLRVE:  << XDIPLEN  ; YDIPLEN  >> (   0.03200):    -386.816346697    

@ QRLRVE:  << YDIPLEN  ; YDIPLEN  >> (   0.03200):     2463.35129453    

@ QRLRVE:  << ZDIPLEN  ; YDIPLEN  >> (   0.03200):    1.133854061773E-13


 QRLRVE -- linear response calculation for symmetry  1  ( A  )
 QRLRVE -- operator label : ZDIPLEN 
 QRLRVE -- operator spin  :   0
 QRLRVE -- frequencies :  0.000000  0.016000  0.032000



 ---  SOLVING SETS OF LINEAR EQUATIONS FOR LINEAR RESPONSE PROPERTIES ---

 Operator symmetry = 1  ( A  ); triplet =   F


 ** RSPCTL MICROITERATION NUMBER    1

       No.  Residual tot.,    conf., and orb.    Bnorm      Frequency 
      ----------------------------------------------------------------
         1    4.05018D+00  0.00D+00  4.05D+00  1.10D+01    0.00000D+00
         2    4.05269D+00  0.00D+00  4.05D+00  1.10D+01    1.60000D-02
         3    4.06028D+00  0.00D+00  4.06D+00  1.11D+01    3.20000D-02

 ** RSPCTL MICROITERATION NUMBER    2

       No.  Residual tot.,    conf., and orb.    Bnorm      Frequency 
      ----------------------------------------------------------------
         1    9.00149D-01  0.00D+00  9.00D-01  1.14D+01    0.00000D+00
         2    9.01930D-01  0.00D+00  9.02D-01  1.15D+01    1.60000D-02
         3    9.07315D-01  0.00D+00  9.07D-01  1.15D+01    3.20000D-02

 ** RSPCTL MICROITERATION NUMBER    3

       No.  Residual tot.,    conf., and orb.    Bnorm      Frequency 
      ----------------------------------------------------------------
         1    1.81151D-01  0.00D+00  1.81D-01  1.15D+01    0.00000D+00
         2    1.81899D-01  0.00D+00  1.82D-01  1.15D+01    1.60000D-02
         3    1.84171D-01  0.00D+00  1.84D-01  1.16D+01    3.20000D-02

 ** RSPCTL MICROITERATION NUMBER    4

       No.  Residual tot.,    conf., and orb.    Bnorm      Frequency 
      ----------------------------------------------------------------
         1    5.51630D-02  0.00D+00  5.52D-02  1.15D+01    0.00000D+00
         2    5.57341D-02  0.00D+00  5.57D-02  1.15D+01    1.60000D-02
         3    5.74960D-02  0.00D+00  5.75D-02  1.16D+01    3.20000D-02

 ** RSPCTL MICROITERATION NUMBER    5

       No.  Residual tot.,    conf., and orb.    Bnorm      Frequency 
      ----------------------------------------------------------------
         1    1.92266D-02  0.00D+00  1.92D-02  1.15D+01    0.00000D+00
         2    1.95841D-02  0.00D+00  1.96D-02  1.15D+01    1.60000D-02
         3    2.06982D-02  0.00D+00  2.07D-02  1.16D+01    3.20000D-02

 ** RSPCTL MICROITERATION NUMBER    6

       No.  Residual tot.,    conf., and orb.    Bnorm      Frequency 
      ----------------------------------------------------------------
         1    6.60912D-03  0.00D+00  6.61D-03  1.15D+01    0.00000D+00
         2    6.78483D-03  0.00D+00  6.78D-03  1.15D+01    1.60000D-02
         3    7.33663D-03  0.00D+00  7.34D-03  1.16D+01    3.20000D-02

 *** THE REQUESTED    3 SOLUTION VECTORS CONVERGED

 Convergence of RSP solution vectors, threshold = 1.00D-03
 ---------------------------------------------------------------
 (dimension of paired reduced space:   36)
 RSP solution vector no.    1; norm of residual   5.76D-04
 RSP solution vector no.    2; norm of residual   5.90D-04
 RSP solution vector no.    3; norm of residual   6.34D-04

 *** RSPCTL MICROITERATIONS CONVERGED

@ QRLRVE: SINGLET SOLUTION FOR SYMMETRY    1  ( A  )    LABEL   ZDIPLEN     FREQUENCY   0.000000D+00

@ QRLRVE:  << XDIPLEN  ; ZDIPLEN  >> (   0.00000):   -1.048041231604E-14

@ QRLRVE:  << YDIPLEN  ; ZDIPLEN  >> (   0.00000):    3.319048104639E-14

@ QRLRVE:  << ZDIPLEN  ; ZDIPLEN  >> (   0.00000):     189.343872559    

@ QRLRVE: SINGLET SOLUTION FOR SYMMETRY    1  ( A  )    LABEL   ZDIPLEN     FREQUENCY   0.160000D-01

@ QRLRVE:  << XDIPLEN  ; ZDIPLEN  >> (   0.01600):   -1.076206674286E-14

@ QRLRVE:  << YDIPLEN  ; ZDIPLEN  >> (   0.01600):    3.420923120907E-14

@ QRLRVE:  << ZDIPLEN  ; ZDIPLEN  >> (   0.01600):     189.515764472    

@ QRLRVE: SINGLET SOLUTION FOR SYMMETRY    1  ( A  )    LABEL   ZDIPLEN     FREQUENCY   0.320000D-01

@ QRLRVE:  << XDIPLEN  ; ZDIPLEN  >> (   0.03200):   -1.175243883296E-14

@ QRLRVE:  << YDIPLEN  ; ZDIPLEN  >> (   0.03200):    3.793098701334E-14

@ QRLRVE:  << ZDIPLEN  ; ZDIPLEN  >> (   0.03200):     190.034770772    
 
 ======================================================================
 ---  L I N E A R   R E S P O N S E   F U N C T I O N S --- 
 ======================================================================

 The -<<A;B>>(omega_b) functions from vectors generated
 in a *QUADRA calculation of <<A;B,C>>(omega_b,omega_c)

 Note: the accuracy of off-diagonal elements will be linear
 in the convergence threshold THCLR =  1.00D-03


 Perturbation symmetry.     KSYMOP:           1
 Perturbation spin symmetry.TRPLET:           F
 Orbital variables.         KZWOPT:      103800
 Configuration variables.   KZCONF:           0
 Total number of variables. KZVAR :      103800

@ Singlet linear response function in a.u.

@ A operator, symmetry, frequency:   XDIPLEN    1 -0.000000
@ B operator, symmetry, frequency:   XDIPLEN    1  0.000000

@ Value of linear response -<<A;B>>(omega):     319.374995153737

@ Singlet linear response function in a.u.

@ A operator, symmetry, frequency:   YDIPLEN    1 -0.000000
@ B operator, symmetry, frequency:   XDIPLEN    1  0.000000

@ Value of linear response -<<A;B>>(omega):    -344.522930751559

@ Singlet linear response function in a.u.

@ A operator, symmetry, frequency:   ZDIPLEN    1 -0.000000
@ B operator, symmetry, frequency:   XDIPLEN    1  0.000000

@ Value of linear response -<<A;B>>(omega):      -0.000000000000

@ Singlet linear response function in a.u.

@ A operator, symmetry, frequency:   XDIPLEN    1 -0.016000
@ B operator, symmetry, frequency:   XDIPLEN    1  0.016000

@ Value of linear response -<<A;B>>(omega):     321.357358744307

@ Singlet linear response function in a.u.

@ A operator, symmetry, frequency:   YDIPLEN    1 -0.016000
@ B operator, symmetry, frequency:   XDIPLEN    1  0.016000

@ Value of linear response -<<A;B>>(omega):    -354.209475408235

@ Singlet linear response function in a.u.

@ A operator, symmetry, frequency:   ZDIPLEN    1 -0.016000
@ B operator, symmetry, frequency:   XDIPLEN    1  0.016000

@ Value of linear response -<<A;B>>(omega):      -0.000000000000

@ Singlet linear response function in a.u.

@ A operator, symmetry, frequency:   XDIPLEN    1 -0.000000
@ B operator, symmetry, frequency:   YDIPLEN    1  0.000000

@ Value of linear response -<<A;B>>(omega):    -344.482941365372

@ Singlet linear response function in a.u.

@ A operator, symmetry, frequency:   YDIPLEN    1 -0.000000
@ B operator, symmetry, frequency:   YDIPLEN    1  0.000000

@ Value of linear response -<<A;B>>(omega):    2222.303809379689

@ Singlet linear response function in a.u.

@ A operator, symmetry, frequency:   ZDIPLEN    1 -0.000000
@ B operator, symmetry, frequency:   YDIPLEN    1  0.000000

@ Value of linear response -<<A;B>>(omega):       0.000000000000

@ Singlet linear response function in a.u.

@ A operator, symmetry, frequency:   XDIPLEN    1 -0.016000
@ B operator, symmetry, frequency:   YDIPLEN    1  0.016000

@ Value of linear response -<<A;B>>(omega):    -354.166398602743

@ Singlet linear response function in a.u.

@ A operator, symmetry, frequency:   YDIPLEN    1 -0.016000
@ B operator, symmetry, frequency:   YDIPLEN    1  0.016000

@ Value of linear response -<<A;B>>(omega):    2277.481319915445

@ Singlet linear response function in a.u.

@ A operator, symmetry, frequency:   ZDIPLEN    1 -0.016000
@ B operator, symmetry, frequency:   YDIPLEN    1  0.016000

@ Value of linear response -<<A;B>>(omega):       0.000000000000

@ Singlet linear response function in a.u.

@ A operator, symmetry, frequency:   XDIPLEN    1 -0.000000
@ B operator, symmetry, frequency:   ZDIPLEN    1  0.000000

@ Value of linear response -<<A;B>>(omega):      -0.000000000000

@ Singlet linear response function in a.u.

@ A operator, symmetry, frequency:   YDIPLEN    1 -0.000000
@ B operator, symmetry, frequency:   ZDIPLEN    1  0.000000

@ Value of linear response -<<A;B>>(omega):       0.000000000000

@ Singlet linear response function in a.u.

@ A operator, symmetry, frequency:   ZDIPLEN    1 -0.000000
@ B operator, symmetry, frequency:   ZDIPLEN    1  0.000000

@ Value of linear response -<<A;B>>(omega):     189.343872558901

@ Singlet linear response function in a.u.

@ A operator, symmetry, frequency:   XDIPLEN    1 -0.016000
@ B operator, symmetry, frequency:   ZDIPLEN    1  0.016000

@ Value of linear response -<<A;B>>(omega):      -0.000000000000

@ Singlet linear response function in a.u.

@ A operator, symmetry, frequency:   YDIPLEN    1 -0.016000
@ B operator, symmetry, frequency:   ZDIPLEN    1  0.016000

@ Value of linear response -<<A;B>>(omega):       0.000000000000

@ Singlet linear response function in a.u.

@ A operator, symmetry, frequency:   ZDIPLEN    1 -0.016000
@ B operator, symmetry, frequency:   ZDIPLEN    1  0.016000

@ Value of linear response -<<A;B>>(omega):     189.515764471518


  Results from quadratic response calculation
 --------------------------------------------

@ B-freq = 0.000000  C-freq = 0.000000     beta(X;X,X) =  -2016.29295505
@ B-freq = 0.000000  C-freq = 0.000000     beta(Y;X,X) =   7761.73393806
@ B-freq = 0.000000  C-freq = 0.000000     beta(Z;X,X) =      0.00000000
@ B-freq = 0.016000  C-freq = 0.000000     beta(X;X,X) =  -2105.18507106
@ B-freq = 0.016000  C-freq = 0.000000     beta(Y;X,X) =   8155.02581605
@ B-freq = 0.016000  C-freq = 0.000000     beta(Z;X,X) =      0.00000000
@ B-freq = 0.000000  C-freq = 0.000000     beta(X;Y,X) = beta(Y,X,X)
@ B-freq = 0.000000  C-freq = 0.000000     beta(X;Y,X) =   7761.73353471
@ B-freq = 0.000000  C-freq = 0.000000     beta(Y;Y,X) = -27729.21077281
@ B-freq = 0.000000  C-freq = 0.000000     beta(Z;Y,X) =     -0.00000000
@ B-freq = 0.016000  C-freq = 0.000000     beta(X;Y,X) =   8155.02539522
@ B-freq = 0.016000  C-freq = 0.000000     beta(Y;Y,X) = -29413.90424044
@ B-freq = 0.016000  C-freq = 0.000000     beta(Z;Y,X) =     -0.00000000
@ B-freq = 0.000000  C-freq = 0.000000     beta(X;Z,X) = beta(Z,X,X)
@ B-freq = 0.000000  C-freq = 0.000000     beta(Y;Z,X) = beta(Z,Y,X)
@ B-freq = 0.000000  C-freq = 0.000000     beta(X;Z,X) =      0.00000000
@ B-freq = 0.000000  C-freq = 0.000000     beta(Y;Z,X) =     -0.00000000
@ B-freq = 0.000000  C-freq = 0.000000     beta(Z;Z,X) =     11.69734833
@ B-freq = 0.016000  C-freq = 0.000000     beta(X;Z,X) =      0.00000000
@ B-freq = 0.016000  C-freq = 0.000000     beta(Y;Z,X) =     -0.00000000
@ B-freq = 0.016000  C-freq = 0.000000     beta(Z;Z,X) =     11.83307658
@ B-freq = 0.000000  C-freq = 0.016000     beta(X;X,X) = beta(X,X,X)
@ B-freq = 0.000000  C-freq = 0.016000     beta(Y;X,X) = beta(Y,X,X)
@ B-freq = 0.000000  C-freq = 0.016000     beta(Z;X,X) = beta(Z,X,X)
@ B-freq = 0.016000  C-freq = 0.016000     beta(X;X,X) =  -2304.84776384
@ B-freq = 0.016000  C-freq = 0.016000     beta(Y;X,X) =   9132.32946376
@ B-freq = 0.016000  C-freq = 0.016000     beta(Z;X,X) =      0.00000000
@ B-freq = 0.000000  C-freq = 0.016000     beta(X;Y,X) =   8080.04766639
@ B-freq = 0.000000  C-freq = 0.016000     beta(Y;Y,X) = -29088.78128361
@ B-freq = 0.000000  C-freq = 0.016000     beta(Z;Y,X) =     -0.00000000
@ B-freq = 0.016000  C-freq = 0.016000     beta(X;Y,X) =   8876.12707341
@ B-freq = 0.016000  C-freq = 0.016000     beta(Y;Y,X) = -32900.46386689
@ B-freq = 0.016000  C-freq = 0.016000     beta(Z;Y,X) =     -0.00000000
@ B-freq = 0.000000  C-freq = 0.016000     beta(X;Z,X) =      0.00000000
@ B-freq = 0.000000  C-freq = 0.016000     beta(Y;Z,X) =     -0.00000000
@ B-freq = 0.000000  C-freq = 0.016000     beta(Z;Z,X) =     11.77341234
@ B-freq = 0.016000  C-freq = 0.016000     beta(X;Z,X) =      0.00000000
@ B-freq = 0.016000  C-freq = 0.016000     beta(Y;Z,X) =     -0.00000000
@ B-freq = 0.016000  C-freq = 0.016000     beta(Z;Z,X) =     12.05501696
@ B-freq = 0.000000  C-freq = 0.000000     beta(X;X,Y) = beta(Y,X,X)
@ B-freq = 0.000000  C-freq = 0.000000     beta(Y;X,Y) = beta(Y,Y,X)
@ B-freq = 0.000000  C-freq = 0.000000     beta(Z;X,Y) = beta(Z,Y,X)
@ B-freq = 0.016000  C-freq = 0.000000     beta(X;X,Y) = beta(X,Y,X)
@ B-freq = 0.016000  C-freq = 0.000000     beta(Y;X,Y) = beta(Y,Y,X)
@ B-freq = 0.016000  C-freq = 0.000000     beta(Z;X,Y) = beta(Z,Y,X)
@ B-freq = 0.000000  C-freq = 0.000000     beta(X;Y,Y) = beta(Y,Y,X)
@ B-freq = 0.000000  C-freq = 0.000000     beta(X;Y,Y) = -27729.20925244
@ B-freq = 0.000000  C-freq = 0.000000     beta(Y;Y,Y) =  89174.77217155
@ B-freq = 0.000000  C-freq = 0.000000     beta(Z;Y,Y) =      0.00000000
@ B-freq = 0.016000  C-freq = 0.000000     beta(X;Y,Y) = -29088.77969279
@ B-freq = 0.016000  C-freq = 0.000000     beta(Y;Y,Y) =  94678.04725320
@ B-freq = 0.016000  C-freq = 0.000000     beta(Z;Y,Y) =      0.00000000
@ B-freq = 0.000000  C-freq = 0.000000     beta(X;Z,Y) = beta(Z,Y,X)
@ B-freq = 0.000000  C-freq = 0.000000     beta(Y;Z,Y) = beta(Z,Y,Y)
@ B-freq = 0.000000  C-freq = 0.000000     beta(X;Z,Y) =     -0.00000000
@ B-freq = 0.000000  C-freq = 0.000000     beta(Y;Z,Y) =      0.00000000
@ B-freq = 0.000000  C-freq = 0.000000     beta(Z;Z,Y) =    -37.96751102
@ B-freq = 0.016000  C-freq = 0.000000     beta(X;Z,Y) =     -0.00000000
@ B-freq = 0.016000  C-freq = 0.000000     beta(Y;Z,Y) =      0.00000000
@ B-freq = 0.016000  C-freq = 0.000000     beta(Z;Z,Y) =    -38.62611141
@ B-freq = 0.000000  C-freq = 0.016000     beta(X;X,Y) = beta(X,Y,X)
@ B-freq = 0.000000  C-freq = 0.016000     beta(Y;X,Y) = beta(Y,Y,X)
@ B-freq = 0.000000  C-freq = 0.016000     beta(Z;X,Y) = beta(Z,Y,X)
@ B-freq = 0.016000  C-freq = 0.016000     beta(X;X,Y) = beta(X,Y,X)
@ B-freq = 0.016000  C-freq = 0.016000     beta(Y;X,Y) = beta(Y,Y,X)
@ B-freq = 0.016000  C-freq = 0.016000     beta(Z;X,Y) = beta(Z,Y,X)
@ B-freq = 0.000000  C-freq = 0.016000     beta(X;Y,Y) = beta(X,Y,Y)
@ B-freq = 0.000000  C-freq = 0.016000     beta(Y;Y,Y) = beta(Y,Y,Y)
@ B-freq = 0.000000  C-freq = 0.016000     beta(Z;Y,Y) = beta(Z,Y,Y)
@ B-freq = 0.016000  C-freq = 0.016000     beta(X;Y,Y) = -31792.53398150
@ B-freq = 0.016000  C-freq = 0.016000     beta(Y;Y,Y) = 107275.56274814
@ B-freq = 0.016000  C-freq = 0.016000     beta(Z;Y,Y) =      0.00000000
@ B-freq = 0.000000  C-freq = 0.016000     beta(X;Z,Y) =     -0.00000000
@ B-freq = 0.000000  C-freq = 0.016000     beta(Y;Z,Y) =      0.00000000
@ B-freq = 0.000000  C-freq = 0.016000     beta(Z;Z,Y) =    -38.41811314
@ B-freq = 0.016000  C-freq = 0.016000     beta(X;Z,Y) =     -0.00000000
@ B-freq = 0.016000  C-freq = 0.016000     beta(Y;Z,Y) =      0.00000000
@ B-freq = 0.016000  C-freq = 0.016000     beta(Z;Z,Y) =    -39.79125518
@ B-freq = 0.000000  C-freq = 0.000000     beta(X;X,Z) = beta(Z,X,X)
@ B-freq = 0.000000  C-freq = 0.000000     beta(Y;X,Z) = beta(Z,Y,X)
@ B-freq = 0.000000  C-freq = 0.000000     beta(Z;X,Z) = beta(Z,Z,X)
@ B-freq = 0.016000  C-freq = 0.000000     beta(X;X,Z) = beta(X,Z,X)
@ B-freq = 0.016000  C-freq = 0.000000     beta(Y;X,Z) = beta(Y,Z,X)
@ B-freq = 0.016000  C-freq = 0.000000     beta(Z;X,Z) = beta(Z,Z,X)
@ B-freq = 0.000000  C-freq = 0.000000     beta(X;Y,Z) = beta(Z,Y,X)
@ B-freq = 0.000000  C-freq = 0.000000     beta(Y;Y,Z) = beta(Z,Y,Y)
@ B-freq = 0.000000  C-freq = 0.000000     beta(Z;Y,Z) = beta(Z,Z,Y)
@ B-freq = 0.016000  C-freq = 0.000000     beta(X;Y,Z) = beta(X,Z,Y)
@ B-freq = 0.016000  C-freq = 0.000000     beta(Y;Y,Z) = beta(Y,Z,Y)
@ B-freq = 0.016000  C-freq = 0.000000     beta(Z;Y,Z) = beta(Z,Z,Y)
@ B-freq = 0.000000  C-freq = 0.000000     beta(X;Z,Z) = beta(Z,Z,X)
@ B-freq = 0.000000  C-freq = 0.000000     beta(Y;Z,Z) = beta(Z,Z,Y)
@ B-freq = 0.000000  C-freq = 0.000000     beta(X;Z,Z) =     11.69733002
@ B-freq = 0.000000  C-freq = 0.000000     beta(Y;Z,Z) =    -37.96736789
@ B-freq = 0.000000  C-freq = 0.000000     beta(Z;Z,Z) =      0.00000000
@ B-freq = 0.016000  C-freq = 0.000000     beta(X;Z,Z) =     11.77339320
@ B-freq = 0.016000  C-freq = 0.000000     beta(Y;Z,Z) =    -38.41796519
@ B-freq = 0.016000  C-freq = 0.000000     beta(Z;Z,Z) =      0.00000000
@ B-freq = 0.000000  C-freq = 0.016000     beta(X;X,Z) = beta(X,Z,X)
@ B-freq = 0.000000  C-freq = 0.016000     beta(Y;X,Z) = beta(Y,Z,X)
@ B-freq = 0.000000  C-freq = 0.016000     beta(Z;X,Z) = beta(Z,Z,X)
@ B-freq = 0.016000  C-freq = 0.016000     beta(X;X,Z) = beta(X,Z,X)
@ B-freq = 0.016000  C-freq = 0.016000     beta(Y;X,Z) = beta(Y,Z,X)
@ B-freq = 0.016000  C-freq = 0.016000     beta(Z;X,Z) = beta(Z,Z,X)
@ B-freq = 0.000000  C-freq = 0.016000     beta(X;Y,Z) = beta(X,Z,Y)
@ B-freq = 0.000000  C-freq = 0.016000     beta(Y;Y,Z) = beta(Y,Z,Y)
@ B-freq = 0.000000  C-freq = 0.016000     beta(Z;Y,Z) = beta(Z,Z,Y)
@ B-freq = 0.016000  C-freq = 0.016000     beta(X;Y,Z) = beta(X,Z,Y)
@ B-freq = 0.016000  C-freq = 0.016000     beta(Y;Y,Z) = beta(Y,Z,Y)
@ B-freq = 0.016000  C-freq = 0.016000     beta(Z;Y,Z) = beta(Z,Z,Y)
@ B-freq = 0.000000  C-freq = 0.016000     beta(X;Z,Z) = beta(X,Z,Z)
@ B-freq = 0.000000  C-freq = 0.016000     beta(Y;Z,Z) = beta(Y,Z,Z)
@ B-freq = 0.000000  C-freq = 0.016000     beta(Z;Z,Z) = beta(Z,Z,Z)
@ B-freq = 0.016000  C-freq = 0.016000     beta(X;Z,Z) =     11.86448388
@ B-freq = 0.016000  C-freq = 0.016000     beta(Y;Z,Z) =    -39.11548095
@ B-freq = 0.016000  C-freq = 0.016000     beta(Z;Z,Z) =      0.00000000

  Total CPU  time used in RESPONSE: 30 minutes 47 seconds
  Total wall time used in RESPONSE: 30 minutes 57 seconds


                   .-------------------------------------------.
                   | End of Dynamic Property Section (RESPONS) |
                   `-------------------------------------------'

  Total CPU  time used in DALTON: 43 minutes 59 seconds
  Total wall time used in DALTON: 44 minutes 13 seconds

 
     Date and time (Linux)  : Thu May 29 18:04:18 2025
     Host name              : xm009                                   
