

     ************************************************************************
     *************** Dalton - An Electronic Structure Program ***************
     ************************************************************************

    This is output from DALTON release Dalton2020.0 (2020)
         ( Web site: http://daltonprogram.org )

   ----------------------------------------------------------------------------

    NOTE:
     
    Dalton is an experimental code for the evaluation of molecular
    properties using (MC)SCF, DFT, CI, and CC wave functions.
    The authors accept no responsibility for the performance of
    the code or for the correctness of the results.
     
    The code (in whole or part) is provided under a licence and
    is not to be reproduced for further distribution without
    the written permission of the authors or their representatives.
     
    See the home page "http://daltonprogram.org" for further information.
     
    If results obtained with this code are published,
    the appropriate citations would be both of:
     
       K. Aidas, C. Angeli, K. L. Bak, V. Bakken, R. Bast,
       L. Boman, O. Christiansen, R. Cimiraglia, S. Coriani,
       P. Dahle, E. K. Dalskov, U. Ekstroem,
       T. Enevoldsen, J. J. Eriksen, P. Ettenhuber, B. Fernandez,
       L. Ferrighi, H. Fliegl, L. Frediani, K. Hald, A. Halkier,
       C. Haettig, H. Heiberg, T. Helgaker, A. C. Hennum,
       H. Hettema, E. Hjertenaes, S. Hoest, I.-M. Hoeyvik,
       M. F. Iozzi, B. Jansik, H. J. Aa. Jensen, D. Jonsson,
       P. Joergensen, J. Kauczor, S. Kirpekar,
       T. Kjaergaard, W. Klopper, S. Knecht, R. Kobayashi, H. Koch,
       J. Kongsted, A. Krapp, K. Kristensen, A. Ligabue,
       O. B. Lutnaes, J. I. Melo, K. V. Mikkelsen, R. H. Myhre,
       C. Neiss, C. B. Nielsen, P. Norman, J. Olsen,
       J. M. H. Olsen, A. Osted, M. J. Packer, F. Pawlowski,
       T. B. Pedersen, P. F. Provasi, S. Reine, Z. Rinkevicius,
       T. A. Ruden, K. Ruud, V. Rybkin, P. Salek, C. C. M. Samson,
       A. Sanchez de Meras, T. Saue, S. P. A. Sauer,
       B. Schimmelpfennig, K. Sneskov, A. H. Steindal,
       K. O. Sylvester-Hvid, P. R. Taylor, A. M. Teale,
       E. I. Tellgren, D. P. Tew, A. J. Thorvaldsen, L. Thoegersen,
       O. Vahtras, M. A. Watson, D. J. D. Wilson, M. Ziolkowski
       and H. Agren,
       "The Dalton quantum chemistry program system",
       WIREs Comput. Mol. Sci. 2014, 4:269–284 (doi: 10.1002/wcms.1172)
     
    and
     
       Dalton, a molecular electronic structure program,
       Release Dalton2020.0 (2020), see http://daltonprogram.org
   ----------------------------------------------------------------------------

    Authors in alphabetical order (Major contribution(s) in parenthesis):

  Kestutis Aidas,           Vilnius University,           Lithuania   (QM/MM)
  Celestino Angeli,         University of Ferrara,        Italy       (NEVPT2)
  Keld L. Bak,              UNI-C,                        Denmark     (AOSOPPA, non-adiabatic coupling, magnetic properties)
  Vebjoern Bakken,          University of Oslo,           Norway      (DALTON; geometry optimizer, symmetry detection)
  Radovan Bast,             UiT The Arctic U. of Norway,  Norway      (DALTON installation and execution frameworks)
  Pablo Baudin,             University of Valencia,       Spain       (Cholesky excitation energies)
  Linus Boman,              NTNU,                         Norway      (Cholesky decomposition and subsystems)
  Bruno N. Cabral Tenorio,  Technical Univ. of Denmark,   Denmark     (Lanczos-based CC methods)
  Ove Christiansen,         Aarhus University,            Denmark     (CC module)
  Renzo Cimiraglia,         University of Ferrara,        Italy       (NEVPT2)
  Sonia Coriani,            Technical Univ. of Denmark,   Denmark     (CC and RESPONS modules)
  Janusz Cukras,            University of Warsaw,         Poland      (MChD in RESPONS)
  Paal Dahle,               University of Oslo,           Norway      (Parallelization)
  Erik K. Dalskov,          UNI-C,                        Denmark     (SOPPA)
  Thomas Enevoldsen,        Univ. of Southern Denmark,    Denmark     (SOPPA)
  Janus J. Eriksen,         Aarhus University,            Denmark     (Polarizable embedding, TDA)
  Rasmus Faber,             Technical Univ. of Denmark,   Denmark     (Vib.avg. NMR w. SOPPA, parallel AO-SOPPA, CVS-CC and EOMCC)
  Tobias Fahleson,          KTH Stockholm,                Sweden      (Damped cubic response)
  Berta Fernandez,          U. of Santiago de Compostela, Spain       (Doublet spin, ESR in RESPONS)
  Lara Ferrighi,            Aarhus University,            Denmark     (PCM Cubic response)
  Heike Fliegl,             University of Oslo,           Norway      (CCSD(R12))
  Luca Frediani,            UiT The Arctic U. of Norway,  Norway      (PCM)
  Emmanuel Fromager,        Univ. Strasbourg,             France      (MC-srDFT)
  Bin Gao,                  UiT The Arctic U. of Norway,  Norway      (Gen1Int library)
  Andre S. P. Gomes,        CNRS/Universite de Lille,     France      (Frozen density embedding)
  Christof Haettig,         Ruhr-University Bochum,       Germany     (CC module)
  Kasper Hald,              Aarhus University,            Denmark     (CC module)
  Asger Halkier,            Aarhus University,            Denmark     (CC module)
  Frederik Beyer Hansen,    University of Copenhagen,     Denmark     (Parallel AO-SOPPA)
  Erik D. Hedegaard,        Univ. of Southern Denmark,    Denmark     (Polarizable embedding, QM/MM, and MC-srDFT)
  Hanne Heiberg,            University of Oslo,           Norway      (Geometry analysis, selected one-electron integrals)
  Trygve Helgaker,          University of Oslo,           Norway      (DALTON; ABACUS, ERI, DFT modules, London, and much more)
  Alf Christian Hennum,     University of Oslo,           Norway      (Parity violation)
  Hinne Hettema,            University of Auckland,       New Zealand (Quadratic response in RESPONS; SIRIUS supersymmetry)
  Eirik Hjertenaes,         NTNU,                         Norway      (Cholesky decomposition)
  Pi A. B. Haase,           University of Copenhagen,     Denmark     (Triplet AO-SOPPA)
  Maria Francesca Iozzi,    University of Oslo,           Norway      (RPA)
  Christoph Jacob           TU Braunschweig               Germany     (Frozen density embedding)
  Brano Jansik              Technical Univ. of Ostrava    Czech Rep.  (DFT cubic response)
  Hans Joergen Aa. Jensen,  Univ. of Southern Denmark,    Denmark     (DALTON; SIRIUS, RESPONS, ABACUS, MC-srDFT, and much more)
  Dan Jonsson,              UiT The Arctic U. of Norway,  Norway      (Cubic response in RESPONS module)
  Poul Joergensen,          Aarhus University,            Denmark     (RESPONS, ABACUS, and CC modules)
  Maciej Kaminski,          University of Warsaw,         Poland      (CPPh in RESPONS)
  Joanna Kauczor,           Linkoeping University,        Sweden      (Complex polarization propagator (CPP) module)
  Sheela Kirpekar,          Univ. of Southern Denmark,    Denmark     (Mass-velocity & Darwin integrals)
  Erik Kjellgren,           Univ. of Southern Denmark,    Denmark     (MC-srDFT)
  Wim Klopper,              KIT Karlsruhe,                Germany     (R12 code in CC, SIRIUS, and ABACUS modules)
  Stefan Knecht,            ETH Zurich,                   Switzerland (Parallel CI and MCSCF, MC-srDFT)
  Rika Kobayashi,           Australian National Univ.,    Australia   (DIIS in CC, London in MCSCF)
  Henrik Koch,              NTNU,                         Norway      (CC module, Cholesky decomposition)
  Jacob Kongsted,           Univ. of Southern Denmark,    Denmark     (Polarizable embedding, polarizable density embedding, QM/MM)
  Andrea Ligabue,           University of Modena,         Italy       (CTOCD, AOSOPPA)
  Nanna H. List             Univ. of Southern Denmark,    Denmark     (Polarizable embedding)
  Ola B. Lutnaes,           University of Oslo,           Norway      (DFT Hessian)
  Juan I. Melo,             University of Buenos Aires,   Argentina   (LRESC, Relativistic Effects on NMR Shieldings)
  Kurt V. Mikkelsen,        University of Copenhagen,     Denmark     (MC-SCRF and QM/MM)
  Rolf H. Myhre,            NTNU,                         Norway      (Subsystems and CC3)
  Christian Neiss,          Univ. Erlangen-Nuernberg,     Germany     (CCSD(R12))
  Christian B. Nielsen,     University of Copenhagen,     Denmark     (QM/MM)
  Patrick Norman,           KTH Stockholm,                Sweden      (Cubic response and complex frequency response in RESPONS)
  Jeppe Olsen,              Aarhus University,            Denmark     (SIRIUS CI/density modules)
  Jogvan Magnus H. Olsen,   Aarhus University,            Denmark     (Polarizable embedding and polarizable density embedding)
  Anders Osted,             Copenhagen University,        Denmark     (QM/MM)
  Martin J. Packer,         University of Sheffield,      UK          (SOPPA)
  Filip Pawlowski,          Kazimierz Wielki University,  Poland      (CC3)
  Morten N. Pedersen,       Univ. of Southern Denmark,    Denmark     (Polarizable embedding)
  Thomas B. Pedersen,       University of Oslo,           Norway      (Cholesky decomposition)
  Patricio F. Provasi,      University of Northeastern,   Argentina   (Analysis of coupling constants in localized orbitals)
  Peter Reinholdt,          Univ. of Southern Denmark,    Denmark     (Polarizable embedding and polarizable density embedding)
  Zilvinas Rinkevicius,     KTH Stockholm,                Sweden      (open-shell DFT, ESR)
  Elias Rudberg,            KTH Stockholm,                Sweden      (DFT grid and basis info)
  Torgeir A. Ruden,         University of Oslo,           Norway      (Numerical derivatives in ABACUS)
  Kenneth Ruud,             UiT The Arctic U. of Norway,  Norway      (DALTON; ABACUS magnetic properties and much more)
  Pawel Salek,              KTH Stockholm,                Sweden      (DALTON; DFT code)
  Claire C. M. Samson       University of Karlsruhe       Germany     (Boys localization, r12 integrals in ERI)
  Alfredo Sanchez de Meras, University of Valencia,       Spain       (CC module, Cholesky decomposition)
  Trond Saue,               Paul Sabatier University,     France      (direct Fock matrix construction)
  Stephan P. A. Sauer,      University of Copenhagen,     Denmark     (SOPPA(CCSD), SOPPA prop., AOSOPPA, vibrational g-factors)
  Bernd Schimmelpfennig,    Forschungszentrum Karlsruhe,  Germany     (AMFI module)
  Anna K. Schnack-Petersen, University of Copenhagen,     Denmark     (RPA(D) and HRPA(D) properties in AOSOPPA)
  Kristian Sneskov,         Aarhus University,            Denmark     (Polarizable embedding, QM/MM)
  Arnfinn H. Steindal,      UiT The Arctic U. of Norway,  Norway      (parallel QM/MM, polarizable embedding)
  Casper Steinmann,         Aalborg University,           Denmark     (QFIT, polarizable embedding)
  K. O. Sylvester-Hvid,     University of Copenhagen,     Denmark     (MC-SCRF)
  Peter R. Taylor,          VLSCI/Univ. of Melbourne,     Australia   (Symmetry handling ABACUS, integral transformation)
  Andrew M. Teale,          University of Nottingham,     England     (DFT-AC, DFT-D)
  David P. Tew,             University of Bristol,        England     (CCSD(R12))
  Julien Toulouse,          Sorbonne Univ.,               France      (MC-srDFT)
  Olav Vahtras,             KTH Stockholm,                Sweden      (Triplet response, spin-orbit, ESR, TDDFT, open-shell DFT)
  Lucas Visscher,           Vrije Universiteit Amsterdam, Netherlands (Frozen density embedding)
  David J. Wilson,          La Trobe University,          Australia   (DFT Hessian and DFT magnetizabilities)
  Hans Agren,               KTH Stockholm,                Sweden      (SIRIUS module, RESPONS, MC-SCRF solvation)
 --------------------------------------------------------------------------------

     Date and time (Linux)  : Tue May 27 15:55:50 2025
     Host name              : xm059                                   

 * Work memory size             :   131072000 = 1000.00 megabytes.

 * Directories for basis set searches:
   1) /gpfs/projects/rjh/adrian/summer2025/beta_projects/raw_data/NLO/dalton/hf/n10/dipole
   2) /gpfs/projects/rjh/adrian/dalton/build/basis


Compilation information
-----------------------

 Who compiled             | ahurtado
 Host                     | milan2
 System                   | Linux-5.14.0-427.42.1.el9_4.x86_64
 CMake generator          | Unix Makefiles
 Processor                | x86_64
 64-bit integers          | OFF
 MPI                      | ON
 Fortran compiler         | /gpfs/software/openmpi/milan/gcc13.2/4.1.6/bin/mpi
                          | f90
 Fortran compiler version | GNU Fortran (GCC) 13.2.0
 C compiler               | /gpfs/software/openmpi/milan/gcc13.2/4.1.6/bin/mpi
                          | cc
 C compiler version       | gcc (GCC) 13.2.0
 C++ compiler             | /gpfs/software/openmpi/milan/gcc13.2/4.1.6/bin/mpi
                          | cxx
 C++ compiler version     | unknown
 BLAS                     | /gpfs/software/intel/oneAPI/2024_2/mkl/2024.2/lib/
                          | intel64/libmkl_gf_lp64.so;/gpfs/software/intel/one
                          | API/2024_2/mkl/2024.2/lib/intel64/libmkl_sequentia
                          | l.so;/gpfs/software/intel/oneAPI/2024_2/mkl/2024.2
                          | /lib/intel64/libmkl_core.so;/usr/lib64/libpthread.
                          | a;/usr/lib64/libm.so
 LAPACK                   | /gpfs/software/intel/oneAPI/2024_2/mkl/2024.2/lib/
                          | intel64/libmkl_lapack95_lp64.a;/gpfs/software/inte
                          | l/oneAPI/2024_2/mkl/2024.2/lib/intel64/libmkl_gf_l
                          | p64.so
 Static linking           | OFF
 Last Git revision        | 66052b3af5ea7225e31178bf9a8b031913c72190
 Git branch               | (HEAD detached at Dalton2020.0)
 Configuration time       | 2025-04-10 16:02:31.569498

 * MPI parallel run using 576 processes.


   Content of the .dal input file
 ----------------------------------

**DALTON INPUT
.RUN RESPONSE
.DIRECT
**WAVE FUNCTIONS
.HF
**PROPERTIES
**RESPONSE
*QUADRA
.DIPLEN
.FREQUENCIES
2
0.0 0.0169
**END OF DALTON INPUT


   Content of the .mol file
 ----------------------------

BASIS
aug-cc-pVTZ
blah
blah
Atomtype=4 Angstrom Charge=0 Nosymmetry
Charge=6 Atoms=20
C_a 0.2946710015267907 -3.266199999486508 0.0
C_b 0.6245919999195884 -1.9307299988330624 0.0
C_c -0.3385019984549477 -0.8630230000153507 0.0
C_d 0.0 0.47111999882221456 0.0
C_e -0.9552849990697163 1.5451879987596455 0.0
C_f -0.6082440013478295 2.877386001467621 0.0
C_g -1.555175001503457 3.958941001668951 0.0
C_h -1.1977470012759852 5.288136997936112 0.0
C_i -2.1338350016318213 6.3800070007917435 0.0
C_j -1.761537000073764 7.704197001813054 0.0
C_k -2.6806309981943715 8.812358000271312 0.0
C_l -2.2820919983604475 10.126833000926869 0.0
C_m -3.167824998212204 11.263664000434547 0.0
C_n -2.7016550023951784 12.551621999856467 0.0
C_o 2.3678599981867356 -10.402918002330763 0.0
C_p 2.6495470018370852 -9.079618998146143 0.0
C_q 1.6321410009891035 -8.051510001912998 0.0
C_r 1.9347320020324241 -6.715005999573447 0.0
C_s 0.9482450000874422 -5.6635319985360715 0.0
C_t 1.2670480011593794 -4.327153998582152 0.0
Charge=7 Atoms=2
N_a -3.4652040006133333 13.68741600253503 0.0
N_b 3.4325029974534025 -11.399971000972839 0.0
Charge=8 Atoms=2
O_a 3.0580200020254003 -12.578901000398153 0.0
O_b 4.605280999590125 -11.019595998311617 0.0
Charge=1 Atoms=22
H_a -0.7684819987595649 -3.547291001428025 0.0
H_b 1.6894250002637465 -1.6539350003656121 0.0
H_c -1.4038429983378047 -1.1362099994674155 0.0
H_d 1.0667820023452326 0.7405630007157517 0.0
H_e -2.022512002406718 1.2792110017605547 0.0
H_f 0.4605430005309105 3.1391810009309125 0.0
H_g -2.6244310025604696 3.7011640024320998 0.0
H_h -0.12645900206417662 5.540217002325421 0.0
H_i -3.205656998858689 6.133309998660255 0.0
H_j -0.6865369973575849 7.9413919974060825 0.0
H_k -3.7562339983421094 8.583863000819797 0.0
H_l -1.2008399997381745 10.335589002490018 0.0
H_m -4.251344997441688 11.082428002590138 0.0
H_n -1.6194549986753068 12.732716998433094 0.0
H_o -4.474556998544655 13.633253000488795 0.0
H_p -3.0387519983133924 14.600879999642967 0.0
H_q 1.3717300010190543 -10.849470001920414 0.0
H_r 3.705443998295543 -8.783211999029117 0.0
H_s 0.5784399999948003 -8.361977001387782 0.0
H_t 2.9935139985586456 -6.417049998217119 0.0
H_u 2.329441002427543 -4.041303000004711 0.0
H_v -0.11158199971909401 -5.956019001046073 0.0


       *******************************************************************
       *********** Output from DALTON general input processing ***********
       *******************************************************************

 --------------------------------------------------------------------------------
   Overall default print level:    0
   Print level for DALTON.STAT:    1

    Parallel calculation using MPI
    AO-direct calculation (in sections where implemented)
    HERMIT 1- and 2-electron integral sections will be executed
    "Old" integral transformation used (limited to max 255 basis functions)
    Wave function sections will be executed (SIRIUS module)
    Dynamic molecular response properties section will be executed (RESPONSE module)
 --------------------------------------------------------------------------------


   ****************************************************************************
   *************** Output of molecule and basis set information ***************
   ****************************************************************************


    The two title cards from your ".mol" input:
    ------------------------------------------------------------------------
 1: blah                                                                    
 2: blah                                                                    
    ------------------------------------------------------------------------

  Coordinates are entered in Angstrom and converted to atomic units.
          - Conversion factor : 1 bohr = 0.52917721 A

  Atomic type no.    1
  --------------------
  Nuclear charge:   6.00000
  Number of symmetry independent centers:   20
  Number of basis sets to read;    2
  Basis set file used for this atomic type with Z =   6 :
     "/gpfs/projects/rjh/adrian/dalton/build/basis/aug-cc-pVTZ"

  Atomic type no.    2
  --------------------
  Nuclear charge:   7.00000
  Number of symmetry independent centers:    2
  Number of basis sets to read;    2
  Basis set file used for this atomic type with Z =   7 :
     "/gpfs/projects/rjh/adrian/dalton/build/basis/aug-cc-pVTZ"

  Atomic type no.    3
  --------------------
  Nuclear charge:   8.00000
  Number of symmetry independent centers:    2
  Number of basis sets to read;    2
  Basis set file used for this atomic type with Z =   8 :
     "/gpfs/projects/rjh/adrian/dalton/build/basis/aug-cc-pVTZ"

  Atomic type no.    4
  --------------------
  Nuclear charge:   1.00000
  Number of symmetry independent centers:   22
  Number of basis sets to read;    2
  Basis set file used for this atomic type with Z =   1 :
     "/gpfs/projects/rjh/adrian/dalton/build/basis/aug-cc-pVTZ"


                         SYMGRP: Point group information
                         -------------------------------

@    Point group: C1 


                                 Isotopic Masses
                                 ---------------

                           C_a        12.000000
                           C_b        12.000000
                           C_c        12.000000
                           C_d        12.000000
                           C_e        12.000000
                           C_f        12.000000
                           C_g        12.000000
                           C_h        12.000000
                           C_i        12.000000
                           C_j        12.000000
                           C_k        12.000000
                           C_l        12.000000
                           C_m        12.000000
                           C_n        12.000000
                           C_o        12.000000
                           C_p        12.000000
                           C_q        12.000000
                           C_r        12.000000
                           C_s        12.000000
                           C_t        12.000000
                           N_a        14.003074
                           N_b        14.003074
                           O_a        15.994915
                           O_b        15.994915
                           H_a         1.007825
                           H_b         1.007825
                           H_c         1.007825
                           H_d         1.007825
                           H_e         1.007825
                           H_f         1.007825
                           H_g         1.007825
                           H_h         1.007825
                           H_i         1.007825
                           H_j         1.007825
                           H_k         1.007825
                           H_l         1.007825
                           H_m         1.007825
                           H_n         1.007825
                           H_o         1.007825
                           H_p         1.007825
                           H_q         1.007825
                           H_r         1.007825
                           H_s         1.007825
                           H_t         1.007825
                           H_u         1.007825
                           H_v         1.007825

                       Total mass:   322.168128 amu
                       Natural abundance:  78.920 %

 Center-of-mass coordinates (a.u.):    0.087622   -0.282661    0.000000
 Center-of-mass coordinates (Angs):    0.046368   -0.149578    0.000000


  Atoms and basis sets
  --------------------

  Number of atom types :    4
  Total number of atoms:   46

  Basis set used is "aug-cc-pVTZ" from the basis set library.

  label    atoms   charge   prim   cont     basis
  ----------------------------------------------------------------------
  C_         20    6.0000    58    46      [11s6p3d2f|5s4p3d2f]                               
  N_          2    7.0000    58    46      [11s6p3d2f|5s4p3d2f]                               
  O_          2    8.0000    58    46      [11s6p3d2f|5s4p3d2f]                               
  H_         22    1.0000    25    23      [6s3p2d|4s3p2d]                                    
  ----------------------------------------------------------------------
  total:     46  172.0000  1942  1610
  ----------------------------------------------------------------------
  Spherical harmonic basis used.

  Threshold for neglecting AO integrals:  1.00D-12

  Max    interatomic separation is   27.8552 Angstrom (   52.6387 Bohr)
  between atoms   40 and   23, "H_p   " and "O_a   ".

  Min HX interatomic separation is    1.0081 Angstrom (    1.9050 Bohr)

  Min YX interatomic separation is    1.2329 Angstrom (    2.3299 Bohr)


  Bond distances (Angstrom):
  --------------------------

                  atom 1     atom 2       distance
                  ------     ------       --------
  bond distance:  C_b        C_a          1.375619
  bond distance:  C_c        C_b          1.437897
  bond distance:  C_d        C_c          1.376416
  bond distance:  C_e        C_d          1.437425
  bond distance:  C_f        C_e          1.376659
  bond distance:  C_g        C_f          1.437512
  bond distance:  C_h        C_g          1.376414
  bond distance:  C_i        C_h          1.438208
  bond distance:  C_j        C_i          1.375531
  bond distance:  C_k        C_j          1.439706
  bond distance:  C_l        C_k          1.373564
  bond distance:  C_m        C_l          1.441148
  bond distance:  C_n        C_m          1.369726
  bond distance:  C_p        C_o          1.352948
  bond distance:  C_q        C_p          1.446417
  bond distance:  C_r        C_q          1.370330
  bond distance:  C_s        C_r          1.441789
  bond distance:  C_t        C_a          1.439146
  bond distance:  C_t        C_s          1.373878
  bond distance:  N_a        C_n          1.368589
  bond distance:  N_b        C_o          1.458622
  bond distance:  O_a        N_b          1.236978
  bond distance:  O_b        N_b          1.232921
  bond distance:  H_a        C_a          1.099685
  bond distance:  H_b        C_b          1.100220
  bond distance:  H_c        C_c          1.099810
  bond distance:  H_d        C_d          1.100283
  bond distance:  H_e        C_e          1.099871
  bond distance:  H_f        C_f          1.100383
  bond distance:  H_g        C_g          1.099890
  bond distance:  H_h        C_h          1.100546
  bond distance:  H_i        C_i          1.099846
  bond distance:  H_j        C_j          1.100857
  bond distance:  H_k        C_k          1.099605
  bond distance:  H_l        C_l          1.101220
  bond distance:  H_m        C_m          1.098573
  bond distance:  H_n        C_n          1.097248
  bond distance:  H_o        N_a          1.010805
  bond distance:  H_p        N_a          1.008106
  bond distance:  H_q        C_o          1.091643
  bond distance:  H_r        C_p          1.096711
  bond distance:  H_s        C_q          1.098488
  bond distance:  H_t        C_r          1.099908
  bond distance:  H_u        C_t          1.100177
  bond distance:  H_v        C_s          1.099446


  Bond angles (degrees):
  ----------------------

                  atom 1     atom 2     atom 3         angle
                  ------     ------     ------         -----
  bond angle:     C_b        C_a        C_t          123.618
  bond angle:     C_b        C_a        H_a          118.687
  bond angle:     C_t        C_a        H_a          117.696
  bond angle:     C_a        C_b        C_c          124.072
  bond angle:     C_a        C_b        H_b          118.448
  bond angle:     C_c        C_b        H_b          117.480
  bond angle:     C_b        C_c        C_d          123.712
  bond angle:     C_b        C_c        H_c          117.669
  bond angle:     C_d        C_c        H_c          118.619
  bond angle:     C_c        C_d        C_e          124.113
  bond angle:     C_c        C_d        H_d          118.412
  bond angle:     C_e        C_d        H_d          117.475
  bond angle:     C_d        C_e        C_f          123.749
  bond angle:     C_d        C_e        H_e          117.656
  bond angle:     C_f        C_e        H_e          118.595
  bond angle:     C_e        C_f        C_g          124.196
  bond angle:     C_e        C_f        H_f          118.365
  bond angle:     C_g        C_f        H_f          117.440
  bond angle:     C_f        C_g        C_h          123.746
  bond angle:     C_f        C_g        H_g          117.649
  bond angle:     C_h        C_g        H_g          118.605
  bond angle:     C_g        C_h        C_i          124.342
  bond angle:     C_g        C_h        H_h          118.292
  bond angle:     C_i        C_h        H_h          117.366
  bond angle:     C_h        C_i        C_j          123.689
  bond angle:     C_h        C_i        H_i          117.646
  bond angle:     C_j        C_i        H_i          118.665
  bond angle:     C_i        C_j        C_k          124.625
  bond angle:     C_i        C_j        H_j          118.146
  bond angle:     C_k        C_j        H_j          117.229
  bond angle:     C_j        C_k        C_l          123.461
  bond angle:     C_j        C_k        H_k          117.679
  bond angle:     C_l        C_k        H_k          118.860
  bond angle:     C_k        C_l        C_m          125.210
  bond angle:     C_k        C_l        H_l          117.794
  bond angle:     C_m        C_l        H_l          116.995
  bond angle:     C_l        C_m        C_n          122.179
  bond angle:     C_l        C_m        H_m          118.427
  bond angle:     C_n        C_m        H_m          119.393
  bond angle:     C_m        C_n        N_a          126.191
  bond angle:     C_m        C_n        H_n          119.397
  bond angle:     N_a        C_n        H_n          114.412
  bond angle:     C_p        C_o        N_b          121.105
  bond angle:     C_p        C_o        H_q          126.163
  bond angle:     N_b        C_o        H_q          112.732
  bond angle:     C_o        C_p        C_q          123.283
  bond angle:     C_o        C_p        H_r          117.697
  bond angle:     C_q        C_p        H_r          119.020
  bond angle:     C_p        C_q        C_r          122.543
  bond angle:     C_p        C_q        H_s          118.283
  bond angle:     C_r        C_q        H_s          119.174
  bond angle:     C_q        C_r        C_s          124.069
  bond angle:     C_q        C_r        H_t          118.474
  bond angle:     C_s        C_r        H_t          117.456
  bond angle:     C_r        C_s        C_t          123.409
  bond angle:     C_r        C_s        H_v          117.745
  bond angle:     C_t        C_s        H_v          118.846
  bond angle:     C_a        C_t        C_s          124.077
  bond angle:     C_a        C_t        H_u          117.446
  bond angle:     C_s        C_t        H_u          118.477
  bond angle:     C_n        N_a        H_o          120.840
  bond angle:     C_n        N_a        H_p          121.063
  bond angle:     H_o        N_a        H_p          118.097
  bond angle:     C_o        N_b        O_a          115.500
  bond angle:     C_o        N_b        O_b          118.908
  bond angle:     O_a        N_b        O_b          125.592




 Principal moments of inertia (u*A**2) and principal axes
 --------------------------------------------------------

   IA     123.802576         -0.260153    0.965567    0.000000
   IB   23743.393156          0.965567    0.260153    0.000000
   IC   23867.195731          0.000000    0.000000    1.000000


 Rotational constants
 --------------------

@    The molecule is planar.

               A                   B                   C

           4082.1364             21.2850             21.1746 MHz
            0.136165            0.000710            0.000706 cm-1


@  Nuclear repulsion energy : 1425.837764718247 Hartree


                     .---------------------------------------.
                     | Starting in Integral Section (HERMIT) |
                     `---------------------------------------'



 ***************************************************************************************
 ****************** Output from **INTEGRALS input processing (HERMIT) ******************
 ***************************************************************************************


 - Using defaults, no **INTEGRALS input found

 Default print level:        1

 Calculation of one-electron Hamiltonian integrals.

 Center of mass  (bohr):      0.087621939018     -0.282661092379      0.000000000000
 Operator center (bohr):      0.000000000000      0.000000000000      0.000000000000
 Gauge origin    (bohr):      0.000000000000      0.000000000000      0.000000000000
 Dipole origin   (bohr):      0.000000000000      0.000000000000      0.000000000000


     ************************************************************************
     ************************** Output from HERINT **************************
     ************************************************************************



                      Nuclear contribution to dipole moments
                      --------------------------------------

                 au               Debye          C m (/(10**-30)

      x     -0.00003395        -0.00008629        -0.00028784
      y      0.00001145         0.00002910         0.00009708
      z      0.00000000         0.00000000         0.00000000


  Time used in ONEDRV     is       4.49 seconds
  Time used in HUCKEL     is       1.01 seconds
  Time used in OVERLAP    is       0.54 seconds
  Time used in POPOVLP    is       1.06 seconds
  Time used in R2         is       0.66 seconds
  Time used in R4         is       0.77 seconds
  Time used in DIPLEN     is       0.92 seconds
  Time used in QUADRUP    is       1.82 seconds
  Time used in KINENE     is       0.89 seconds
  Time used in GABGEN     is       5.27 seconds
  Total CPU  time used in HERMIT:  17.43 seconds
  Total wall time used in HERMIT:  17.59 seconds


                        .----------------------------------.
                        | End of Integral Section (HERMIT) |
                        `----------------------------------'



                   .--------------------------------------------.
                   | Starting in Wave Function Section (SIRIUS) |
                   `--------------------------------------------'



@ Primary orbitals are deleted during canonical orthonormalization
@   because of detected numerical linear dependence or too large coefficients.
@ Eigenvalue threshold for num. lin. dep. =  1.00D-06

@   7 MO components are deleted in symmetry    1
 Overlap eigenvalues of the deleted orbitals:
  1.00D-06  6.39D-07  5.51D-07  5.09D-07  4.96D-07
  2.12D-07  6.16D-08

 Max MO coeff. of last deleted MO & limit:  2.71D+02  1.00D+03

WARNING: Orbitals have been deleted because of numerical
   linear dependence although not requested in input.

 *** Output from Huckel module :

     Using EWMO model:          T
     Using EHT  model:          F
     Number of Huckel orbitals each symmetry:  142

 EWMO - Energy Weighted Maximum Overlap - is a Huckel type method,
        which normally is better than Extended Huckel Theory.
 Reference: Linderberg and Ohrn, Propagators in Quantum Chemistry (Wiley, 1973)

 Huckel EWMO eigenvalues for symmetry :  1
          -20.684753     -20.683496     -15.677080     -15.674964     -11.359368
          -11.359302     -11.359062     -11.358888     -11.358582     -11.357574
          -11.356157     -11.354494     -11.352766     -11.351191     -11.348506
          -11.347552     -11.346663     -11.345992     -11.345570     -11.345479
          -11.345369     -11.345339     -11.345215     -11.345203      -1.964077
           -1.792384      -1.787141      -1.772335      -1.742277      -1.692755
           -1.622960      -1.535967      -1.451227      -1.427490      -1.326648
           -1.219500      -1.206885      -1.173981      -1.129097      -1.108904
           -1.065198      -1.005942      -0.996580      -0.925568      -0.916328
           -0.857659      -0.852028      -0.842296      -0.815904      -0.780561
           -0.755959      -0.753965      -0.734522      -0.719460      -0.695411
           -0.674852      -0.665561      -0.647033      -0.626031      -0.625571
           -0.599084      -0.586020      -0.580790      -0.573644      -0.554516
           -0.537734      -0.531917      -0.523196      -0.514248      -0.504370
           -0.495268      -0.490991      -0.489712      -0.484424      -0.481458
           -0.480464      -0.475271      -0.475253      -0.474802      -0.447668
           -0.430487      -0.412492      -0.391551      -0.383829      -0.365176
           -0.358684      -0.335586      -0.300513      -0.276068      -0.255233
           -0.238103      -0.229143      -0.224427      -0.213845      -0.205944
           -0.200925      -0.200303      -0.196553      -0.194412      -0.190574
           -0.166681      -0.142733      -0.138957      -0.134556      -0.132032
           -0.131424      -0.130762      -0.129973      -0.129719      -0.129539
           -0.128841      -0.128513      -0.127651      -0.127530      -0.126687
           -0.126625      -0.125871      -0.125583      -0.124540      -0.124313
           -0.123705      -0.123161      -0.112026      -0.111102      -0.106874
           -0.105594      -0.101449      -0.099777      -0.096280      -0.094508
           -0.092347      -0.090534      -0.089213      -0.087866      -0.086793
           -0.085937      -0.085294      -0.084324      -0.082818      -0.081351
           -0.080075      -0.079349

 **********************************************************************
 *SIRIUS* a direct, restricted step, second order MCSCF program       *
 **********************************************************************

 
     Date and time (Linux)  : Tue May 27 16:00:02 2025
     Host name              : xm059                                   

 Title lines from ".mol" input file:
     blah                                                                    
     blah                                                                    

 Print level on unit LUPRI =   2 is   0
 Print level on unit LUW4  =   2 is   5

@    Restricted, closed shell Hartree-Fock calculation.

@    Time-dependent Hartree-Fock calculation (random phase approximation).
 Fock matrices are calculated directly and in parallel without use of integrals on disk.

 Initial molecular orbitals are obtained according to
 ".MOSTART EWMO  " input option

     Wave function specification
     ============================
@    Wave function type        --- HF ---
@    Number of closed shell electrons         172
@    Number of electrons in active shells       0
@    Total charge of the molecule               0

@    Spin multiplicity and 2 M_S                1         0
@    Total number of symmetries                 1 (point group: C1 )
@    Reference state symmetry                   1 (irrep name : A  )

     Orbital specifications
     ======================
@    Abelian symmetry species          All |    1
@                                          |  A  
                                       --- |  ---
@    Occupied SCF orbitals              86 |   86
@    Secondary orbitals               1517 | 1517
@    Total number of orbitals         1603 | 1603
@    Number of basis functions        1610 | 1610

     Optimization information
     ========================
@    Number of configurations                 1
@    Number of orbital rotations         130462
     ------------------------------------------
@    Total number of variables           130463

     Maximum number of Fock   iterations      0
     Maximum number of DIIS   iterations     60
     Maximum number of QC-SCF iterations     60
     Threshold for SCF convergence     1.00D-05

    INFORMATION: Switched to "new" integral transformation (from 1988 ;-) )
    because more than 255 basis functions.


 ***********************************************
 ***** DIIS acceleration of SCF iterations *****
 ***********************************************

 C1-DIIS algorithm; max error vectors =    8

 Iter      Total energy        Error norm    Delta(E)  DIIS dim.
 -----------------------------------------------------------------------------
   1  Screening settings (-IFTHRS, JTDIIS, DIFDEN, times)  -10    1    T  2.85D+01  2.86D+01
@  1    -1024.95718634        7.78693D+00   -1.02D+03    1
      Virial theorem: -V/T =      2.011128
@    MULPOP   C_a    -0.03; C_b     0.09; C_c    -0.00; C_d     0.10; C_e     0.02; C_f     0.08; C_g    -0.01; C_h     0.07; C_i    -0.08; C_j     0.03; 
@             C_k    -0.13; C_l    -0.08; C_m    -0.07; C_n     0.33; C_o     0.20; C_p    -0.03; C_q    -0.07; C_r    -0.03; C_s    -0.03; C_t     0.03; 
@             N_a    -0.69; N_b     0.65; O_a    -0.90; O_b    -0.96; H_a     0.02; H_b    -0.02; H_c     0.00; H_d     0.00; H_e     0.01; H_f     0.00; 
@    MULPOP    dipole moment & components:     29.5528;      -10.1961     27.7382      0.0000
   1  Level shift: doubly occupied orbital energies shifted by -2.00D-01
 -----------------------------------------------------------------------------
   2  Screening settings (-IFTHRS, JTDIIS, DIFDEN, times)  -10    2    T  2.45D+01  2.45D+01
@  2    -1028.33951982        3.02472D+00   -3.38D+00    2
      Virial theorem: -V/T =      2.000743
@    MULPOP   C_a    -0.09; C_b    -0.01; C_c    -0.12; C_d    -0.01; C_e    -0.06; C_f    -0.10; C_g    -0.02; C_h     0.01; C_i    -0.00; C_j     0.04; 
@             C_k     0.05; C_l    -0.00; C_m     0.13; C_n    -0.55; C_o    -0.90; C_p     0.21; C_q    -0.10; C_r     0.09; C_s     0.00; C_t    -0.02; 
@             N_a    -0.54; N_b     0.26; O_a    -0.20; O_b    -0.34; H_a     0.06; H_b    -0.03; H_c     0.02; H_d     0.02; H_e    -0.01; H_f     0.09; 
@    MULPOP    dipole moment & components:     10.6004;       -2.8055     10.2224      0.0000
   2  Level shift: doubly occupied orbital energies shifted by -1.00D-01
 -----------------------------------------------------------------------------
   3  Screening settings (-IFTHRS, JTDIIS, DIFDEN, times)  -10    3    T  2.37D+01  2.37D+01
@  3    -1028.80027765        1.02155D+00   -4.61D-01    3
      Virial theorem: -V/T =      2.001733
@    MULPOP   C_a    -0.12; C_b    -0.03; C_c    -0.14; C_d    -0.07; C_e    -0.12; C_f    -0.12; C_g    -0.08; C_h    -0.03; C_i    -0.07; C_j     0.01; 
@             C_k    -0.03; C_l     0.01; C_m     0.01; C_n    -0.43; C_o    -0.63; C_p     0.20; C_q    -0.09; C_r     0.09; C_s    -0.03; C_t    -0.03; 
@             N_a    -0.53; N_b     0.93; O_a    -0.76; O_b    -0.72; H_a     0.08; H_b     0.01; H_c     0.05; H_d     0.06; H_e     0.03; H_f     0.11; 
@    MULPOP    dipole moment & components:      9.3744;       -2.7090      8.9745      0.0000
   3  Level shift: doubly occupied orbital energies shifted by -5.00D-02
 -----------------------------------------------------------------------------
   4  Screening settings (-IFTHRS, JTDIIS, DIFDEN, times)  -10    4    T  2.30D+01  2.30D+01
@  4    -1028.86581513        2.99203D-01   -6.55D-02    4
      Virial theorem: -V/T =      2.003438
@    MULPOP   C_a    -0.12; C_b    -0.03; C_c    -0.15; C_d    -0.06; C_e    -0.13; C_f    -0.11; C_g    -0.09; C_h    -0.03; C_i    -0.08; C_j     0.02; 
@             C_k    -0.04; C_l     0.03; C_m    -0.03; C_n    -0.40; C_o    -0.69; C_p     0.19; C_q    -0.10; C_r     0.10; C_s    -0.04; C_t    -0.02; 
@             N_a    -0.54; N_b     0.73; O_a    -0.62; O_b    -0.67; H_a     0.08; H_b     0.02; H_c     0.05; H_d     0.06; H_e     0.03; H_f     0.11; 
@    MULPOP    dipole moment & components:      8.2865;       -2.1840      7.9935      0.0000
   4  Level shift: doubly occupied orbital energies shifted by -2.50D-02
 -----------------------------------------------------------------------------
   5  Screening settings (-IFTHRS, JTDIIS, DIFDEN, times)  -10    5    T  2.22D+01  2.22D+01
@  5    -1028.87906881        1.25401D-01   -1.33D-02    5
      Virial theorem: -V/T =      2.002741
@    MULPOP   C_a    -0.13; C_b    -0.04; C_c    -0.16; C_d    -0.08; C_e    -0.14; C_f    -0.12; C_g    -0.10; C_h    -0.04; C_i    -0.08; C_j     0.01; 
@             C_k    -0.06; C_l     0.02; C_m    -0.03; C_n    -0.41; C_o    -0.68; C_p     0.17; C_q    -0.12; C_r     0.09; C_s    -0.06; C_t    -0.04; 
@             N_a    -0.56; N_b     0.79; O_a    -0.66; O_b    -0.66; H_a     0.09; H_b     0.04; H_c     0.06; H_d     0.07; H_e     0.05; H_f     0.12; 
@    MULPOP    dipole moment & components:      7.5617;       -1.8513      7.3316      0.0000
   5  Level shift: doubly occupied orbital energies shifted by -1.25D-02
 -----------------------------------------------------------------------------
   6  Screening settings (-IFTHRS, JTDIIS, DIFDEN, times)  -14    6    F  2.89D+01  2.91D+01
@  6    -1028.88295016        6.54268D-02   -3.88D-03    6
      Virial theorem: -V/T =      2.002611
@    MULPOP   C_a    -0.13; C_b    -0.04; C_c    -0.16; C_d    -0.08; C_e    -0.14; C_f    -0.12; C_g    -0.11; C_h    -0.04; C_i    -0.09; C_j     0.01; 
@             C_k    -0.06; C_l     0.02; C_m    -0.03; C_n    -0.42; C_o    -0.69; C_p     0.18; C_q    -0.12; C_r     0.09; C_s    -0.06; C_t    -0.04; 
@             N_a    -0.57; N_b     0.78; O_a    -0.65; O_b    -0.67; H_a     0.09; H_b     0.04; H_c     0.07; H_d     0.08; H_e     0.05; H_f     0.13; 
@    MULPOP    dipole moment & components:      7.1099;       -1.7307      6.8960      0.0000
   6  Level shift: doubly occupied orbital energies shifted by -1.25D-02
 -----------------------------------------------------------------------------
   7  Screening settings (-IFTHRS, JTDIIS, DIFDEN, times)  -14    7    T  2.72D+01  2.72D+01
@  7    -1028.88423428        3.13785D-02   -1.28D-03    7
      Virial theorem: -V/T =      2.002645
@    MULPOP   C_a    -0.13; C_b    -0.04; C_c    -0.16; C_d    -0.08; C_e    -0.14; C_f    -0.12; C_g    -0.10; C_h    -0.04; C_i    -0.09; C_j     0.01; 
@             C_k    -0.06; C_l     0.02; C_m    -0.03; C_n    -0.42; C_o    -0.69; C_p     0.18; C_q    -0.12; C_r     0.09; C_s    -0.06; C_t    -0.04; 
@             N_a    -0.57; N_b     0.78; O_a    -0.65; O_b    -0.66; H_a     0.10; H_b     0.04; H_c     0.07; H_d     0.08; H_e     0.05; H_f     0.12; 
@    MULPOP    dipole moment & components:      6.8312;       -1.6171      6.6371      0.0000
 -----------------------------------------------------------------------------
   8  Screening settings (-IFTHRS, JTDIIS, DIFDEN, times)  -14    8    T  2.68D+01  2.68D+01
@  8    -1028.88455797        1.38943D-02   -3.24D-04    8
      Virial theorem: -V/T =      2.002640
@    MULPOP   C_a    -0.13; C_b    -0.05; C_c    -0.16; C_d    -0.08; C_e    -0.14; C_f    -0.12; C_g    -0.10; C_h    -0.04; C_i    -0.08; C_j     0.01; 
@             C_k    -0.06; C_l     0.02; C_m    -0.03; C_n    -0.42; C_o    -0.69; C_p     0.18; C_q    -0.12; C_r     0.09; C_s    -0.06; C_t    -0.04; 
@             N_a    -0.57; N_b     0.78; O_a    -0.65; O_b    -0.66; H_a     0.10; H_b     0.04; H_c     0.07; H_d     0.08; H_e     0.05; H_f     0.12; 
@    MULPOP    dipole moment & components:      6.5848;       -1.5692      6.3951      0.0000
 -----------------------------------------------------------------------------
   9  Screening settings (-IFTHRS, JTDIIS, DIFDEN, times)  -14    9    T  2.63D+01  2.63D+01
@  9    -1028.88460454        5.50493D-03   -4.66D-05    8
      Virial theorem: -V/T =      2.002631
@    MULPOP   C_a    -0.13; C_b    -0.05; C_c    -0.16; C_d    -0.08; C_e    -0.14; C_f    -0.12; C_g    -0.10; C_h    -0.04; C_i    -0.08; C_j     0.01; 
@             C_k    -0.06; C_l     0.02; C_m    -0.03; C_n    -0.42; C_o    -0.69; C_p     0.18; C_q    -0.12; C_r     0.10; C_s    -0.06; C_t    -0.04; 
@             N_a    -0.57; N_b     0.78; O_a    -0.65; O_b    -0.66; H_a     0.10; H_b     0.04; H_c     0.07; H_d     0.08; H_e     0.05; H_f     0.12; 
@    MULPOP    dipole moment & components:      6.4740;       -1.5454      6.2869      0.0000
 -----------------------------------------------------------------------------
  10  Screening settings (-IFTHRS, JTDIIS, DIFDEN, times)  -14   10    T  2.61D+01  2.61D+01
@ 10    -1028.88461685        3.21098D-03   -1.23D-05    8
      Virial theorem: -V/T =      2.002631
@    MULPOP   C_a    -0.13; C_b    -0.05; C_c    -0.16; C_d    -0.08; C_e    -0.14; C_f    -0.12; C_g    -0.10; C_h    -0.04; C_i    -0.08; C_j     0.01; 
@             C_k    -0.06; C_l     0.02; C_m    -0.03; C_n    -0.42; C_o    -0.69; C_p     0.18; C_q    -0.12; C_r     0.09; C_s    -0.06; C_t    -0.04; 
@             N_a    -0.57; N_b     0.78; O_a    -0.65; O_b    -0.66; H_a     0.10; H_b     0.04; H_c     0.07; H_d     0.08; H_e     0.05; H_f     0.12; 
@    MULPOP    dipole moment & components:      6.3897;       -1.5382      6.2018      0.0000
 -----------------------------------------------------------------------------
  11  Screening settings (-IFTHRS, JTDIIS, DIFDEN, times)  -14   11    T  2.55D+01  2.55D+01
@ 11    -1028.88462193        1.96115D-03   -5.08D-06    8
      Virial theorem: -V/T =      2.002632
@    MULPOP   C_a    -0.13; C_b    -0.05; C_c    -0.16; C_d    -0.08; C_e    -0.14; C_f    -0.12; C_g    -0.10; C_h    -0.04; C_i    -0.08; C_j     0.01; 
@             C_k    -0.06; C_l     0.02; C_m    -0.03; C_n    -0.43; C_o    -0.69; C_p     0.18; C_q    -0.12; C_r     0.09; C_s    -0.06; C_t    -0.04; 
@             N_a    -0.57; N_b     0.78; O_a    -0.65; O_b    -0.66; H_a     0.10; H_b     0.04; H_c     0.07; H_d     0.08; H_e     0.05; H_f     0.12; 
@    MULPOP    dipole moment & components:      6.3268;       -1.5350      6.1378      0.0000
 -----------------------------------------------------------------------------
  12  Screening settings (-IFTHRS, JTDIIS, DIFDEN, times)  -14   12    T  2.55D+01  2.55D+01
@ 12    -1028.88462398        6.95578D-04   -2.05D-06    8
      Virial theorem: -V/T =      2.002631
@    MULPOP   C_a    -0.13; C_b    -0.05; C_c    -0.16; C_d    -0.08; C_e    -0.14; C_f    -0.12; C_g    -0.10; C_h    -0.04; C_i    -0.08; C_j     0.01; 
@             C_k    -0.06; C_l     0.02; C_m    -0.03; C_n    -0.43; C_o    -0.69; C_p     0.18; C_q    -0.12; C_r     0.09; C_s    -0.06; C_t    -0.04; 
@             N_a    -0.57; N_b     0.78; O_a    -0.65; O_b    -0.66; H_a     0.10; H_b     0.04; H_c     0.07; H_d     0.08; H_e     0.05; H_f     0.12; 
@    MULPOP    dipole moment & components:      6.2731;       -1.5333      6.0828      0.0000
 -----------------------------------------------------------------------------
  13  Screening settings (-IFTHRS, JTDIIS, DIFDEN, times)  -14   13    T  2.49D+01  2.49D+01
@ 13    -1028.88462423        2.94400D-04   -2.50D-07    8
      Virial theorem: -V/T =      2.002631
@    MULPOP   C_a    -0.13; C_b    -0.05; C_c    -0.16; C_d    -0.08; C_e    -0.14; C_f    -0.12; C_g    -0.10; C_h    -0.04; C_i    -0.08; C_j     0.01; 
@             C_k    -0.06; C_l     0.02; C_m    -0.03; C_n    -0.43; C_o    -0.69; C_p     0.18; C_q    -0.12; C_r     0.09; C_s    -0.06; C_t    -0.04; 
@             N_a    -0.57; N_b     0.78; O_a    -0.65; O_b    -0.66; H_a     0.10; H_b     0.04; H_c     0.07; H_d     0.08; H_e     0.05; H_f     0.12; 
@    MULPOP    dipole moment & components:      6.2532;       -1.5328      6.0624      0.0000
 -----------------------------------------------------------------------------
  14  Screening settings (-IFTHRS, JTDIIS, DIFDEN, times)  -14   14    T  2.40D+01  2.40D+01
@ 14    -1028.88462425        1.44477D-04   -2.16D-08    8
      Virial theorem: -V/T =      2.002631
@    MULPOP   C_a    -0.13; C_b    -0.05; C_c    -0.16; C_d    -0.08; C_e    -0.14; C_f    -0.12; C_g    -0.10; C_h    -0.04; C_i    -0.08; C_j     0.01; 
@             C_k    -0.06; C_l     0.02; C_m    -0.03; C_n    -0.43; C_o    -0.69; C_p     0.18; C_q    -0.12; C_r     0.09; C_s    -0.06; C_t    -0.04; 
@             N_a    -0.57; N_b     0.78; O_a    -0.65; O_b    -0.66; H_a     0.10; H_b     0.04; H_c     0.07; H_d     0.08; H_e     0.05; H_f     0.12; 
@    MULPOP    dipole moment & components:      6.2494;       -1.5327      6.0585      0.0000
 -----------------------------------------------------------------------------
  15  Screening settings (-IFTHRS, JTDIIS, DIFDEN, times)  -14   15    T  2.36D+01  2.36D+01
@ 15    -1028.88462426        6.25523D-05   -4.77D-09    8
      Virial theorem: -V/T =      2.002631
@    MULPOP   C_a    -0.13; C_b    -0.05; C_c    -0.16; C_d    -0.08; C_e    -0.14; C_f    -0.12; C_g    -0.10; C_h    -0.04; C_i    -0.08; C_j     0.01; 
@             C_k    -0.06; C_l     0.02; C_m    -0.03; C_n    -0.43; C_o    -0.69; C_p     0.18; C_q    -0.12; C_r     0.09; C_s    -0.06; C_t    -0.04; 
@             N_a    -0.57; N_b     0.78; O_a    -0.65; O_b    -0.66; H_a     0.10; H_b     0.04; H_c     0.07; H_d     0.08; H_e     0.05; H_f     0.12; 
@    MULPOP    dipole moment & components:      6.2477;       -1.5327      6.0568      0.0000
 -----------------------------------------------------------------------------
  16  Screening settings (-IFTHRS, JTDIIS, DIFDEN, times)  -14   16    T  2.30D+01  2.30D+01
@ 16    -1028.88462426        2.76339D-05   -6.58D-10    8
      Virial theorem: -V/T =      2.002631
@    MULPOP   C_a    -0.13; C_b    -0.05; C_c    -0.16; C_d    -0.08; C_e    -0.14; C_f    -0.12; C_g    -0.10; C_h    -0.04; C_i    -0.08; C_j     0.01; 
@             C_k    -0.06; C_l     0.02; C_m    -0.03; C_n    -0.43; C_o    -0.69; C_p     0.18; C_q    -0.12; C_r     0.09; C_s    -0.06; C_t    -0.04; 
@             N_a    -0.57; N_b     0.78; O_a    -0.65; O_b    -0.66; H_a     0.10; H_b     0.04; H_c     0.07; H_d     0.08; H_e     0.05; H_f     0.12; 
@    MULPOP    dipole moment & components:      6.2474;       -1.5327      6.0564      0.0000
 -----------------------------------------------------------------------------
  17  Screening settings (-IFTHRS, JTDIIS, DIFDEN, times)  -14   17    T  2.29D+01  2.29D+01
@ 17    -1028.88462426        1.79904D-05   -2.03D-10    8
      Virial theorem: -V/T =      2.002631
@    MULPOP   C_a    -0.13; C_b    -0.05; C_c    -0.16; C_d    -0.08; C_e    -0.14; C_f    -0.12; C_g    -0.10; C_h    -0.04; C_i    -0.08; C_j     0.01; 
@             C_k    -0.06; C_l     0.02; C_m    -0.03; C_n    -0.43; C_o    -0.69; C_p     0.18; C_q    -0.12; C_r     0.09; C_s    -0.06; C_t    -0.04; 
@             N_a    -0.57; N_b     0.78; O_a    -0.65; O_b    -0.66; H_a     0.10; H_b     0.04; H_c     0.07; H_d     0.08; H_e     0.05; H_f     0.12; 
@    MULPOP    dipole moment & components:      6.2472;       -1.5327      6.0563      0.0000
 -----------------------------------------------------------------------------
  18  Screening settings (-IFTHRS, JTDIIS, DIFDEN, times)  -14   18    T  2.30D+01  2.30D+01
@ 18    -1028.88462426        7.84842D-06   -5.55D-11    8

@ *** DIIS converged in  18 iterations !
@     Converged SCF energy, gradient:  -1028.884624256311    7.85D-06
    - total time used in SIRFCK :              0.00 seconds


 *** SCF orbital energy analysis ***

 Only the 20 lowest virtual orbital energies printed in each symmetry.

 Number of electrons :  172
 Orbital occupations :   86

 Sym       Hartree-Fock orbital energies

1 A     -20.58678671   -20.58394518   -15.83712616   -15.59348842   -11.30382703
        -11.28878205   -11.28720768   -11.27770847   -11.26958726   -11.26361548
        -11.25889018   -11.25857528   -11.25501016   -11.25414778   -11.25392646
        -11.25185496   -11.25077385   -11.24999238   -11.24747917   -11.24397496
        -11.24007647   -11.23554363   -11.23053540   -11.22797110    -1.57713480
         -1.37502660    -1.23840290    -1.14246944    -1.12703236    -1.11647583
         -1.10489369    -1.08948919    -1.07016760    -1.04727517    -1.02109645
         -0.99191894    -0.96024336    -0.93578032    -0.88547477    -0.85146486
         -0.82009880    -0.79645790    -0.78466318    -0.77891099    -0.77084410
         -0.76572287    -0.75547468    -0.75274790    -0.73396186    -0.71842065
         -0.71072759    -0.69497197    -0.68192263    -0.67216044    -0.66375340
         -0.64926609    -0.63947161    -0.61973485    -0.61605508    -0.59903342
         -0.58523062    -0.57800041    -0.56230983    -0.55547133    -0.54786483
         -0.53626256    -0.53367673    -0.52690955    -0.52601627    -0.51956322
         -0.51307125    -0.50706461    -0.49947627    -0.49817605    -0.48437114
         -0.47968800    -0.47729723    -0.46932638    -0.44891753    -0.43826805
         -0.42282637    -0.39142016    -0.35499740    -0.31433593    -0.27134540
         -0.23006359     0.00682116     0.01521551     0.02257433     0.02533627
          0.02702561     0.02947890     0.03264787     0.03661608     0.04160313
          0.04531815     0.04584392     0.05190007     0.05671579     0.06359847
          0.07005980     0.07622557     0.07845683     0.07878664     0.08032262
          0.08160822

    E(LUMO) :     0.00682116 au (symmetry 1)
  - E(HOMO) :    -0.23006359 au (symmetry 1)
  ------------------------------------------
    gap     :     0.23688475 au

 --- Writing SIRIFC interface file

 CPU and wall time for SCF :    1038.036    1039.050


                       .-----------------------------------.
                       | --- Final results from SIRIUS --- |
                       `-----------------------------------'


@    Spin multiplicity:           1
@    Spatial symmetry:            1 ( irrep  A   in C1  )
@    Total charge of molecule:    0

@    Final HF energy:           -1028.884624256311                 
@    Nuclear repulsion:          1425.837764718247
@    Electronic energy:         -2454.722388974557

@    Final gradient norm:           0.000007848424

 
     Date and time (Linux)  : Tue May 27 16:17:30 2025
     Host name              : xm059                                   

File label for MO orbitals:  27May25   FOCKDIIS

 (Only coefficients > 0.0100 are printed.)

 Molecular orbitals for symmetry species 1  (A  )
 ------------------------------------------------

    Orbital        77       78       79       80       81       82       83
   4 C_a :1s     0.0136   0.0000   0.0000  -0.0000   0.0000   0.0000   0.0000
   5 C_a :1s    -0.0416   0.0000   0.0000   0.0000  -0.0000   0.0000   0.0000
   8 C_a :2pz   -0.0000   0.2005  -0.2206   0.0133  -0.0406  -0.1894   0.2283
  13 C_a :2py    0.0113  -0.0000   0.0000   0.0000  -0.0000   0.0000   0.0000
  16 C_a :2py    0.0127  -0.0000  -0.0000   0.0000  -0.0000  -0.0000   0.0000
  17 C_a :2pz   -0.0000   0.0035  -0.0041   0.0051  -0.0005  -0.0078   0.0113
  24 C_a :3d1-  -0.0000   0.0066  -0.0018   0.0007   0.0093  -0.0134   0.0016
  32 C_a :3d2+   0.0412  -0.0000   0.0000  -0.0000   0.0000   0.0000   0.0000
  51 C_b :1s    -0.0174  -0.0000  -0.0000  -0.0000   0.0000  -0.0000  -0.0000
  54 C_b :2pz   -0.0000   0.2313  -0.1472   0.0154   0.0988  -0.2381   0.1016
  61 C_b :2px    0.0156  -0.0000   0.0000   0.0000  -0.0000   0.0000  -0.0000
  62 C_b :2py    0.0139   0.0000   0.0000   0.0000  -0.0000   0.0000   0.0000
  70 C_b :3d1-  -0.0000  -0.0040   0.0100  -0.0004   0.0080   0.0064  -0.0181
  78 C_b :3d2+  -0.0248   0.0000   0.0000   0.0000   0.0000   0.0000   0.0000
  96 C_c :1s    -0.0317  -0.0000  -0.0000  -0.0000  -0.0000  -0.0000  -0.0000
 100 C_c :2pz    0.0000   0.2191   0.0216   0.0103   0.2405  -0.1025  -0.2002
 106 C_c :2pz   -0.0000   0.0000   0.0042  -0.0012   0.0030   0.0040  -0.0115
 108 C_c :2py   -0.0283  -0.0000   0.0000   0.0000   0.0000   0.0000  -0.0000
 109 C_c :2pz    0.0000   0.0037   0.0007  -0.0043   0.0064  -0.0025  -0.0104
 116 C_c :3d1-  -0.0000   0.0028   0.0079  -0.0001   0.0077   0.0088  -0.0148
 120 C_c :3d2-  -0.0153  -0.0000  -0.0000  -0.0000   0.0000  -0.0000  -0.0000
 121 C_c :3d1-  -0.0000   0.0139  -0.0089   0.0004   0.0001  -0.0107   0.0005
 124 C_c :3d2+  -0.0314   0.0000   0.0000   0.0000  -0.0000   0.0000  -0.0000
 142 C_d :1s    -0.0292   0.0000   0.0000  -0.0000  -0.0000   0.0000  -0.0000
 143 C_d :1s     0.0263   0.0000  -0.0000  -0.0000   0.0000  -0.0000  -0.0000
 146 C_d :2pz    0.0000   0.1666   0.1314   0.0029   0.2224   0.0579  -0.2382
 151 C_d :2py   -0.0122  -0.0000   0.0000  -0.0000   0.0000  -0.0000   0.0000
 153 C_d :2px   -0.0131  -0.0000  -0.0000   0.0000   0.0000  -0.0000   0.0000
 155 C_d :2pz    0.0000   0.0029   0.0018  -0.0000   0.0055   0.0007  -0.0113
 162 C_d :3d1-  -0.0000  -0.0067   0.0041  -0.0007  -0.0096   0.0118   0.0094
 167 C_d :3d1-  -0.0000   0.0191  -0.0067  -0.0004   0.0032  -0.0107   0.0019
 188 C_e :1s     0.0146   0.0000  -0.0000  -0.0000  -0.0000   0.0000  -0.0000
 189 C_e :1s     0.0509  -0.0000   0.0000  -0.0000   0.0000   0.0000  -0.0000
 192 C_e :2pz    0.0000   0.0542   0.2392  -0.0093   0.0613   0.2434  -0.0296
 197 C_e :2py   -0.0184   0.0000   0.0000  -0.0000   0.0000   0.0000  -0.0000
 200 C_e :2py    0.0218  -0.0000   0.0000  -0.0000  -0.0000   0.0000  -0.0000
 208 C_e :3d1-  -0.0000  -0.0025   0.0072  -0.0007  -0.0084   0.0086   0.0137
 213 C_e :3d1-  -0.0000   0.0298   0.0044  -0.0005   0.0101  -0.0038  -0.0035
 215 C_e :3d1+   0.0000  -0.0050   0.0046   0.0001  -0.0028   0.0100   0.0007
 216 C_e :3d2+   0.0302   0.0000  -0.0000   0.0000  -0.0000  -0.0000  -0.0000
 234 C_f :1s     0.0209  -0.0000  -0.0000   0.0000  -0.0000  -0.0000  -0.0000
 235 C_f :1s    -0.0782   0.0000   0.0000   0.0000  -0.0000   0.0000   0.0000
 238 C_f :2pz   -0.0000  -0.0338   0.2408  -0.0143  -0.0785   0.2161   0.1382
 243 C_f :2py   -0.0169  -0.0000  -0.0000  -0.0000  -0.0000  -0.0000  -0.0000
 245 C_f :2px    0.0117  -0.0000   0.0000  -0.0000   0.0000   0.0000   0.0000
 246 C_f :2py    0.0111  -0.0000   0.0000  -0.0000   0.0000   0.0000  -0.0000
 254 C_f :3d1-  -0.0000  -0.0034  -0.0064   0.0000  -0.0086  -0.0121   0.0087
 258 C_f :3d2-   0.0186   0.0000   0.0000   0.0000   0.0000   0.0000  -0.0000
 259 C_f :3d1-  -0.0000   0.0307   0.0099  -0.0002   0.0090  -0.0023  -0.0042
 281 C_g :1s    -0.0271   0.0000  -0.0000  -0.0000  -0.0000  -0.0000  -0.0000
 284 C_g :2pz   -0.0000  -0.1544   0.1551  -0.0151  -0.2362  -0.0019   0.2335
 289 C_g :2py   -0.0107   0.0000   0.0000  -0.0000  -0.0000  -0.0000  -0.0000
 292 C_g :2py   -0.0142   0.0000  -0.0000   0.0000  -0.0000  -0.0000  -0.0000
 293 C_g :2pz   -0.0000  -0.0021   0.0024  -0.0019  -0.0058  -0.0008   0.0112
 300 C_g :3d1-  -0.0000  -0.0055  -0.0018  -0.0002  -0.0087  -0.0128   0.0014
 304 C_g :3d2-  -0.0135   0.0000  -0.0000   0.0000  -0.0000  -0.0000   0.0000
 305 C_g :3d1-  -0.0000   0.0282   0.0233  -0.0012  -0.0006   0.0026   0.0020
 326 C_h :1s    -0.0124  -0.0000  -0.0000   0.0000   0.0000  -0.0000   0.0000
 327 C_h :1s     0.0746  -0.0000   0.0000  -0.0000   0.0000   0.0000   0.0000
 330 C_h :2pz   -0.0000  -0.2140   0.0510  -0.0103  -0.2405  -0.1513   0.1090
 335 C_h :2py   -0.0181   0.0000   0.0000  -0.0000   0.0000   0.0000  -0.0000
 337 C_h :2px   -0.0116   0.0000  -0.0000  -0.0000  -0.0000  -0.0000  -0.0000
 338 C_h :2py   -0.0147  -0.0000   0.0000  -0.0000   0.0000   0.0000  -0.0000
 346 C_h :3d1-  -0.0000   0.0022  -0.0080   0.0006   0.0077  -0.0071  -0.0179
 351 C_h :3d1-  -0.0000   0.0259   0.0259  -0.0017  -0.0055   0.0015   0.0005
 354 C_h :3d2+  -0.0152  -0.0000  -0.0000   0.0000   0.0000  -0.0000   0.0000
 373 C_i :1s    -0.0128  -0.0000   0.0000  -0.0000   0.0000   0.0000   0.0000
 376 C_i :2pz    0.0000  -0.2660  -0.1171   0.0010  -0.1137  -0.2485  -0.1897
 381 C_i :2py   -0.0181  -0.0000  -0.0000   0.0000  -0.0000  -0.0000   0.0000
 382 C_i :2pz    0.0000   0.0044  -0.0006   0.0004   0.0022  -0.0044  -0.0113
 384 C_i :2py    0.0206  -0.0000  -0.0000  -0.0000   0.0000  -0.0000   0.0000
 392 C_i :3d1-  -0.0000  -0.0048  -0.0076   0.0005   0.0059  -0.0040  -0.0152
 397 C_i :3d1-  -0.0000   0.0133   0.0255  -0.0017  -0.0170  -0.0088  -0.0024
 418 C_j :1s     0.0126   0.0000   0.0000  -0.0000   0.0000   0.0000   0.0000
 419 C_j :1s    -0.0307  -0.0000  -0.0000   0.0000  -0.0000  -0.0000  -0.0000
 422 C_j :2pz   -0.0000  -0.2646  -0.2021   0.0086   0.0236  -0.1630  -0.2419
 427 C_j :2py   -0.0107  -0.0000  -0.0000   0.0000  -0.0000  -0.0000   0.0000
 431 C_j :2pz    0.0000  -0.0037  -0.0036  -0.0008   0.0004  -0.0049  -0.0101
 438 C_j :3d1-  -0.0000   0.0061   0.0002   0.0003   0.0099   0.0143   0.0074
 443 C_j :3d1-  -0.0000   0.0104   0.0232  -0.0015  -0.0184  -0.0106  -0.0010
 465 C_k :1s     0.0246   0.0000   0.0000  -0.0000   0.0000   0.0000   0.0000
 468 C_k :2pz   -0.0000  -0.2274  -0.2629   0.0161   0.2111   0.0881  -0.0669
 473 C_k :2py   -0.0119  -0.0000   0.0000  -0.0000   0.0000   0.0000   0.0000
 475 C_k :2px    0.0122   0.0000   0.0000  -0.0000   0.0000   0.0000  -0.0000
 484 C_k :3d1-   0.0000  -0.0012  -0.0039   0.0004   0.0088   0.0126   0.0112
 489 C_k :3d1-  -0.0000  -0.0028   0.0103  -0.0011  -0.0136  -0.0131  -0.0079
 510 C_l :1s     0.0110  -0.0000  -0.0000   0.0000  -0.0000  -0.0000  -0.0000
 511 C_l :1s    -0.0145   0.0000  -0.0000  -0.0000  -0.0000  -0.0000   0.0000
 514 C_l :2pz   -0.0000  -0.1690  -0.2324   0.0158   0.2481   0.2064   0.1082
 522 C_l :2py    0.0174   0.0000  -0.0000  -0.0000  -0.0000  -0.0000   0.0000
 530 C_l :3d1-   0.0000   0.0076   0.0094  -0.0006  -0.0064   0.0010   0.0105
 535 C_l :3d1-  -0.0000  -0.0040   0.0067  -0.0009  -0.0115  -0.0140  -0.0107
 557 C_m :1s    -0.0159  -0.0000   0.0000   0.0000   0.0000  -0.0000  -0.0000
 560 C_m :2pz   -0.0000  -0.0615  -0.1159   0.0090   0.1721   0.2214   0.2551
 566 C_m :2pz    0.0000   0.0019   0.0018  -0.0000   0.0003   0.0055   0.0127
 568 C_m :2py   -0.0183   0.0000   0.0000   0.0000   0.0000   0.0000  -0.0000
 569 C_m :2pz   -0.0000  -0.0003  -0.0018  -0.0000   0.0040   0.0078   0.0135
 603 C_n :1s     0.0216   0.0000  -0.0000   0.0000  -0.0000  -0.0000   0.0000
 606 C_n :2pz    0.0000   0.0302   0.0112   0.0002   0.0234   0.0677   0.1167
 622 C_n :3d1-   0.0000   0.0066   0.0110  -0.0008  -0.0153  -0.0191  -0.0218
 627 C_n :3d1-   0.0000  -0.0026   0.0013  -0.0002  -0.0046  -0.0080  -0.0104
 646 C_o :1s     0.0211  -0.0000  -0.0000  -0.0000   0.0000  -0.0000   0.0000
 648 C_o :1s    -0.0281   0.0000   0.0000   0.0000  -0.0000   0.0000   0.0000
 649 C_o :1s    -0.1031   0.0000   0.0000   0.0000  -0.0000   0.0000  -0.0000
 650 C_o :2px    0.1689   0.0000  -0.0000   0.0000  -0.0000  -0.0000   0.0000
 651 C_o :2py   -0.0206  -0.0000  -0.0000   0.0000  -0.0000  -0.0000  -0.0000
 652 C_o :2pz   -0.0000  -0.1663   0.2021  -0.0178   0.2350  -0.2572   0.2636
 656 C_o :2px   -0.1065   0.0000   0.0000   0.0000  -0.0000   0.0000  -0.0000
 657 C_o :2py   -0.1432   0.0000  -0.0000   0.0000  -0.0000   0.0000  -0.0000
 658 C_o :2pz    0.0000   0.0008   0.0034   0.0089   0.0042  -0.0081   0.0110
 659 C_o :2px   -0.0478   0.0000   0.0000   0.0000  -0.0000   0.0000   0.0000
 660 C_o :2py    0.1064   0.0000  -0.0000   0.0000  -0.0000  -0.0000  -0.0000
 661 C_o :2pz   -0.0000  -0.0038   0.0054   0.0154   0.0059  -0.0083   0.0111
 668 C_o :3d1-  -0.0000  -0.0093   0.0108   0.0043   0.0105  -0.0093   0.0067
 672 C_o :3d2-   0.0317  -0.0000   0.0000  -0.0000   0.0000   0.0000   0.0000
 673 C_o :3d1-   0.0000  -0.0058   0.0105   0.0270   0.0103  -0.0129   0.0128
 674 C_o :3d0    0.0162  -0.0000  -0.0000   0.0000   0.0000  -0.0000   0.0000
 675 C_o :3d1+   0.0000   0.0042  -0.0013   0.0163  -0.0015  -0.0005   0.0005
 692 C_p :1s     0.0469  -0.0000  -0.0000   0.0000  -0.0000  -0.0000  -0.0000
 694 C_p :1s     0.2340  -0.0000   0.0000  -0.0000   0.0000  -0.0000  -0.0000
 695 C_p :1s    -0.1272  -0.0000  -0.0000   0.0000  -0.0000  -0.0000  -0.0000
 696 C_p :2px    0.0693   0.0000  -0.0000  -0.0000   0.0000  -0.0000   0.0000
 697 C_p :2py   -0.0263  -0.0000   0.0000   0.0000  -0.0000   0.0000   0.0000
 698 C_p :2pz   -0.0000  -0.2003   0.2173  -0.0086   0.2147  -0.1897   0.1445
 702 C_p :2px   -0.1356  -0.0000  -0.0000   0.0000  -0.0000  -0.0000   0.0000
 703 C_p :2py    0.0447   0.0000  -0.0000   0.0000  -0.0000   0.0000   0.0000
 704 C_p :2pz    0.0000   0.0056  -0.0069  -0.0293  -0.0029   0.0007   0.0022
 705 C_p :2px    0.0733   0.0000  -0.0000  -0.0000   0.0000  -0.0000   0.0000
 706 C_p :2py   -0.1485  -0.0000   0.0000   0.0000   0.0000   0.0000  -0.0000
 707 C_p :2pz   -0.0000  -0.0023   0.0025  -0.0227   0.0054  -0.0062   0.0074
 713 C_p :3d2-   0.0125  -0.0000   0.0000  -0.0000   0.0000   0.0000   0.0000
 714 C_p :3d1-  -0.0000   0.0025  -0.0052   0.0008  -0.0096   0.0147  -0.0192
 717 C_p :3d2+   0.0163  -0.0000  -0.0000   0.0000  -0.0000  -0.0000  -0.0000
 718 C_p :3d2-  -0.0173  -0.0000   0.0000  -0.0000   0.0000   0.0000  -0.0000
 719 C_p :3d1-   0.0000  -0.0066   0.0105   0.0010   0.0098  -0.0093   0.0055
 722 C_p :3d2+   0.0181  -0.0000   0.0000   0.0000  -0.0000   0.0000  -0.0000
 736 C_p :4f3+   0.0133  -0.0000  -0.0000  -0.0000  -0.0000  -0.0000  -0.0000
 740 C_q :1s    -0.1195  -0.0000  -0.0000   0.0000  -0.0000  -0.0000  -0.0000
 741 C_q :1s     0.2716  -0.0000  -0.0000  -0.0000   0.0000  -0.0000   0.0000
 742 C_q :2px   -0.0543  -0.0000   0.0000   0.0000  -0.0000   0.0000  -0.0000
 744 C_q :2pz    0.0000  -0.1984   0.1476  -0.0153   0.0540   0.0675  -0.1850
 748 C_q :2px   -0.0610   0.0000  -0.0000  -0.0000  -0.0000  -0.0000  -0.0000
 749 C_q :2py    0.1784  -0.0000   0.0000   0.0000  -0.0000   0.0000  -0.0000
 750 C_q :2pz   -0.0000  -0.0012   0.0010   0.0135  -0.0032   0.0063  -0.0107
 751 C_q :2px    0.0221  -0.0000   0.0000   0.0000   0.0000  -0.0000  -0.0000
 752 C_q :2py    0.0731   0.0000   0.0000  -0.0000  -0.0000   0.0000  -0.0000
 760 C_q :3d1-  -0.0000  -0.0029  -0.0018  -0.0000  -0.0082   0.0135  -0.0153
 765 C_q :3d1-   0.0000  -0.0170   0.0203  -0.0012   0.0164  -0.0124   0.0058
 766 C_q :3d0   -0.0163   0.0000   0.0000   0.0000  -0.0000   0.0000  -0.0000
 768 C_q :3d2+  -0.0704   0.0000   0.0000   0.0000  -0.0000   0.0000  -0.0000
 786 C_r :1s    -0.1883   0.0000   0.0000  -0.0000  -0.0000  -0.0000  -0.0000
 787 C_r :1s    -0.0399   0.0000   0.0000   0.0000   0.0000   0.0000   0.0000
 788 C_r :2px    0.0210  -0.0000   0.0000  -0.0000   0.0000   0.0000   0.0000
 789 C_r :2py    0.0163  -0.0000  -0.0000  -0.0000  -0.0000  -0.0000   0.0000
 790 C_r :2pz    0.0000  -0.1367   0.0380  -0.0132  -0.0840   0.1878  -0.2316
 794 C_r :2px    0.0273  -0.0000  -0.0000  -0.0000   0.0000   0.0000   0.0000
 795 C_r :2py    0.0462   0.0000  -0.0000   0.0000  -0.0000  -0.0000  -0.0000
 797 C_r :2px    0.0360  -0.0000   0.0000  -0.0000   0.0000   0.0000   0.0000
 798 C_r :2py    0.0167  -0.0000  -0.0000   0.0000  -0.0000  -0.0000  -0.0000
 799 C_r :2pz    0.0000  -0.0026   0.0018   0.0123  -0.0017   0.0061  -0.0126
 810 C_r :3d2-  -0.0517   0.0000  -0.0000  -0.0000  -0.0000  -0.0000  -0.0000
 811 C_r :3d1-  -0.0000  -0.0190   0.0207  -0.0024   0.0141  -0.0102   0.0060
 814 C_r :3d2+  -0.0334   0.0000  -0.0000   0.0000  -0.0000  -0.0000  -0.0000
 832 C_s :1s     0.0451  -0.0000  -0.0000  -0.0000   0.0000  -0.0000  -0.0000
 833 C_s :1s    -0.0784  -0.0000  -0.0000   0.0000  -0.0000  -0.0000  -0.0000
 836 C_s :2pz    0.0000  -0.0023  -0.1452  -0.0056  -0.2365   0.2022  -0.0395
 840 C_s :2px    0.0193  -0.0000   0.0000  -0.0000   0.0000   0.0000   0.0000
 841 C_s :2py    0.0377   0.0000  -0.0000   0.0000  -0.0000  -0.0000  -0.0000
 843 C_s :2px   -0.0117  -0.0000  -0.0000  -0.0000   0.0000  -0.0000   0.0000
 852 C_s :3d1-   0.0000   0.0048  -0.0092   0.0007  -0.0077  -0.0017   0.0130
 856 C_s :3d2-   0.0169  -0.0000  -0.0000   0.0000  -0.0000  -0.0000  -0.0000
 857 C_s :3d1-  -0.0000  -0.0222   0.0173  -0.0029   0.0046  -0.0010   0.0006
 859 C_s :3d1+   0.0000   0.0077  -0.0095   0.0028  -0.0105   0.0073  -0.0002
 879 C_t :1s     0.0654  -0.0000  -0.0000  -0.0000   0.0000   0.0000   0.0000
 882 C_t :2pz   -0.0000   0.0900  -0.2145   0.0022  -0.2139   0.0695   0.1251
 887 C_t :2py    0.0365  -0.0000   0.0000   0.0000  -0.0000   0.0000  -0.0000
 889 C_t :2px   -0.0327   0.0000  -0.0000  -0.0000  -0.0000  -0.0000  -0.0000
 898 C_t :3d1-   0.0000   0.0032   0.0019   0.0010   0.0104  -0.0159   0.0094
 902 C_t :3d2-   0.0218  -0.0000  -0.0000  -0.0000   0.0000  -0.0000   0.0000
 903 C_t :3d1-  -0.0000  -0.0198   0.0132  -0.0002   0.0009  -0.0004   0.0002
 906 C_t :3d2+   0.0683  -0.0000   0.0000  -0.0000   0.0000   0.0000   0.0000
 928 N_a :2pz    0.0000   0.1424   0.1785  -0.0121  -0.1985  -0.2105  -0.2166
 934 N_a :2pz   -0.0000   0.0030   0.0058  -0.0004  -0.0079  -0.0104  -0.0131
 937 N_a :2pz    0.0000   0.0054   0.0080  -0.0005  -0.0111  -0.0149  -0.0197
 970 N_b :1s     0.0427  -0.0000   0.0000   0.0000  -0.0000   0.0000   0.0000
 971 N_b :1s     0.0995  -0.0000  -0.0000   0.0000  -0.0000  -0.0000  -0.0000
 972 N_b :2px   -0.0129  -0.0000   0.0000  -0.0000   0.0000   0.0000  -0.0000
 973 N_b :2py    0.1350   0.0000   0.0000  -0.0000   0.0000   0.0000   0.0000
 974 N_b :2pz   -0.0000   0.0247  -0.0238  -0.0062  -0.0185   0.0104   0.0004
 978 N_b :2px   -0.0242   0.0000  -0.0000   0.0000  -0.0000  -0.0000  -0.0000
 979 N_b :2py    0.0252  -0.0000  -0.0000   0.0000  -0.0000  -0.0000  -0.0000
 981 N_b :2px   -0.0484   0.0000   0.0000  -0.0000   0.0000   0.0000  -0.0000
 982 N_b :2py   -0.0717  -0.0000   0.0000  -0.0000   0.0000   0.0000   0.0000
 985 N_b :3d1-  -0.0000  -0.0019   0.0027   0.0141   0.0019  -0.0025   0.0027
 987 N_b :3d1+   0.0000   0.0014  -0.0012   0.0144  -0.0027   0.0026  -0.0026
 988 N_b :3d2+   0.0149  -0.0000  -0.0000  -0.0000   0.0000  -0.0000  -0.0000
 989 N_b :3d2-  -0.0239   0.0000  -0.0000   0.0000  -0.0000   0.0000  -0.0000
 990 N_b :3d1-   0.0000  -0.0060   0.0086   0.0403   0.0066  -0.0085   0.0092
 992 N_b :3d1+  -0.0000   0.0042  -0.0041   0.0412  -0.0087   0.0088  -0.0092
 993 N_b :3d2+   0.0319   0.0000   0.0000  -0.0000   0.0000   0.0000   0.0000
 995 N_b :3d1-  -0.0000  -0.0024   0.0025  -0.0136   0.0041  -0.0039   0.0038
 998 N_b :3d2+  -0.1192   0.0000   0.0000   0.0000  -0.0000   0.0000   0.0000
1016 O_a :1s    -0.0273  -0.0000  -0.0000   0.0000   0.0000  -0.0000   0.0000
1017 O_a :1s    -0.0954  -0.0000   0.0000  -0.0000   0.0000   0.0000   0.0000
1018 O_a :2px   -0.4610  -0.0000  -0.0000  -0.0000   0.0000  -0.0000   0.0000
1019 O_a :2py   -0.0859  -0.0000  -0.0000   0.0000  -0.0000  -0.0000  -0.0000
1020 O_a :2pz    0.0000   0.0654  -0.0967  -0.6370  -0.0540   0.0752  -0.0812
1024 O_a :2px   -0.0590   0.0000   0.0000   0.0000  -0.0000   0.0000  -0.0000
1025 O_a :2py    0.0174  -0.0000   0.0000  -0.0000   0.0000   0.0000   0.0000
1026 O_a :2pz   -0.0000   0.0038  -0.0061  -0.0616  -0.0021   0.0046  -0.0064
1027 O_a :2px   -0.0443  -0.0000  -0.0000  -0.0000   0.0000  -0.0000   0.0000
1029 O_a :2pz    0.0000   0.0021  -0.0044  -0.0439  -0.0018   0.0044  -0.0065
1035 O_a :3d2-  -0.0137   0.0000  -0.0000  -0.0000  -0.0000  -0.0000  -0.0000
1036 O_a :3d1-   0.0000   0.0019  -0.0025  -0.0166  -0.0012   0.0014  -0.0012
1040 O_a :3d2-  -0.0200   0.0000   0.0000   0.0000  -0.0000   0.0000  -0.0000
1041 O_a :3d1-  -0.0000   0.0015  -0.0021  -0.0203  -0.0004   0.0009  -0.0010
1062 O_b :1s     0.0566  -0.0000  -0.0000  -0.0000   0.0000  -0.0000   0.0000
1063 O_b :1s     0.0725  -0.0000  -0.0000  -0.0000  -0.0000  -0.0000   0.0000
1064 O_b :2px    0.1942  -0.0000  -0.0000  -0.0000  -0.0000  -0.0000   0.0000
1065 O_b :2py   -0.8040   0.0000   0.0000  -0.0000  -0.0000   0.0000  -0.0000
1066 O_b :2pz    0.0000   0.0451  -0.0337   0.6466  -0.0939   0.0844  -0.0826
1070 O_b :2px    0.0246   0.0000   0.0000   0.0000   0.0000   0.0000  -0.0000
1071 O_b :2py   -0.0985  -0.0000  -0.0000   0.0000   0.0000  -0.0000   0.0000
1072 O_b :2pz    0.0000   0.0035  -0.0019   0.0620  -0.0072   0.0059  -0.0059
1074 O_b :2py   -0.0539   0.0000   0.0000   0.0000  -0.0000   0.0000  -0.0000
1075 O_b :2pz    0.0000   0.0009  -0.0003   0.0466  -0.0049   0.0053  -0.0065
1081 O_b :3d2-   0.0149  -0.0000  -0.0000  -0.0000  -0.0000  -0.0000  -0.0000
1084 O_b :3d1+  -0.0000  -0.0013   0.0008  -0.0165   0.0021  -0.0015   0.0011
1086 O_b :3d2-   0.0313   0.0000   0.0000  -0.0000  -0.0000   0.0000  -0.0000
1088 O_b :3d0    0.0102   0.0000   0.0000  -0.0000   0.0000   0.0000  -0.0000
1089 O_b :3d1+  -0.0000  -0.0015   0.0008  -0.0197   0.0022  -0.0013   0.0008
1090 O_b :3d2+  -0.0125  -0.0000  -0.0000  -0.0000   0.0000  -0.0000   0.0000
1107 H_a :1s    -0.0613   0.0000  -0.0000   0.0000  -0.0000  -0.0000   0.0000
1116 H_a :2py   -0.0165   0.0000  -0.0000   0.0000  -0.0000  -0.0000  -0.0000
1130 H_b :1s     0.0599  -0.0000  -0.0000  -0.0000   0.0000  -0.0000  -0.0000
1131 H_b :1s    -0.0316   0.0000  -0.0000  -0.0000  -0.0000  -0.0000   0.0000
1153 H_c :1s     0.0755  -0.0000  -0.0000  -0.0000   0.0000  -0.0000  -0.0000
1161 H_c :2px    0.0145  -0.0000  -0.0000   0.0000  -0.0000  -0.0000  -0.0000
1177 H_d :1s     0.0258  -0.0000   0.0000  -0.0000   0.0000   0.0000  -0.0000
1199 H_e :1s    -0.0595   0.0000  -0.0000  -0.0000  -0.0000  -0.0000  -0.0000
1222 H_f :1s    -0.0138   0.0000  -0.0000   0.0000  -0.0000  -0.0000  -0.0000
1223 H_f :1s    -0.0242   0.0000  -0.0000   0.0000  -0.0000  -0.0000  -0.0000
1245 H_g :1s     0.0271  -0.0000   0.0000  -0.0000   0.0000   0.0000  -0.0000
1268 H_h :1s     0.0225  -0.0000   0.0000  -0.0000   0.0000   0.0000   0.0000
1269 H_h :1s     0.0193  -0.0000   0.0000  -0.0000   0.0000   0.0000   0.0000
1314 H_j :1s    -0.0137   0.0000   0.0000  -0.0000   0.0000   0.0000   0.0000
1315 H_j :1s    -0.0110   0.0000  -0.0000   0.0000  -0.0000  -0.0000  -0.0000
1337 H_k :1s    -0.0159  -0.0000   0.0000  -0.0000   0.0000   0.0000   0.0000
1383 H_m :1s     0.0120   0.0000   0.0000   0.0000  -0.0000   0.0000  -0.0000
1473 H_q :1s    -0.1498  -0.0000   0.0000  -0.0000   0.0000  -0.0000   0.0000
1474 H_q :1s     0.0241   0.0000  -0.0000   0.0000  -0.0000  -0.0000  -0.0000
1475 H_q :1s    -0.0993   0.0000  -0.0000   0.0000  -0.0000  -0.0000  -0.0000
1483 H_q :2px   -0.0317   0.0000   0.0000   0.0000  -0.0000   0.0000  -0.0000
1485 H_q :2pz    0.0000   0.0010   0.0022   0.0161   0.0025  -0.0050   0.0057
1496 H_r :1s     0.0494   0.0000  -0.0000  -0.0000  -0.0000  -0.0000   0.0000
1497 H_r :1s    -0.0450   0.0000   0.0000   0.0000   0.0000   0.0000  -0.0000
1498 H_r :1s     0.0738   0.0000   0.0000  -0.0000   0.0000   0.0000  -0.0000
1506 H_r :2px   -0.0275  -0.0000  -0.0000  -0.0000   0.0000   0.0000   0.0000
1507 H_r :2py    0.0164  -0.0000  -0.0000   0.0000  -0.0000  -0.0000   0.0000
1519 H_s :1s     0.0609   0.0000  -0.0000   0.0000   0.0000  -0.0000   0.0000
1521 H_s :1s     0.0772  -0.0000  -0.0000  -0.0000   0.0000   0.0000  -0.0000
1522 H_s :1s     0.0101   0.0000   0.0000  -0.0000   0.0000   0.0000   0.0000
1529 H_s :2px    0.0182  -0.0000  -0.0000  -0.0000   0.0000  -0.0000   0.0000
1542 H_t :1s     0.0276  -0.0000   0.0000  -0.0000   0.0000   0.0000   0.0000
1543 H_t :1s     0.0102   0.0000  -0.0000   0.0000  -0.0000  -0.0000  -0.0000
1544 H_t :1s     0.0588  -0.0000  -0.0000   0.0000   0.0000  -0.0000   0.0000
1545 H_t :1s    -0.0356   0.0000  -0.0000  -0.0000  -0.0000  -0.0000   0.0000
1552 H_t :2px   -0.0133   0.0000  -0.0000  -0.0000  -0.0000  -0.0000  -0.0000
1567 H_u :1s    -0.1366   0.0000   0.0000   0.0000  -0.0000   0.0000   0.0000
1568 H_u :1s     0.0404  -0.0000   0.0000   0.0000   0.0000   0.0000   0.0000
1575 H_u :2px    0.0202  -0.0000   0.0000  -0.0000   0.0000   0.0000   0.0000
1576 H_u :2py    0.0105  -0.0000   0.0000  -0.0000   0.0000   0.0000   0.0000

    Orbital        84       85       86       87       88       89       90
   2 C_a :1s    -0.0000   0.0000   0.0000   0.0000  -0.0010  -0.0083   0.0106
   4 C_a :1s    -0.0000   0.0000   0.0000   0.0000   0.1163   0.8897  -0.3325
   5 C_a :1s    -0.0000  -0.0000   0.0000   0.0000  -0.0322   7.2065 -15.4803
   6 C_a :2px   -0.0000   0.0000   0.0000   0.0000   0.0028   0.0145  -0.0168
   8 C_a :2pz   -0.0099   0.2375  -0.2073  -0.1734   0.0000  -0.0000  -0.0000
  12 C_a :2px    0.0000   0.0000   0.0000   0.0000  -0.0293  -0.2448   0.7113
  13 C_a :2py    0.0000   0.0000   0.0000   0.0000   0.0784   0.3099   0.1647
  14 C_a :2pz    0.0044   0.0174  -0.0165  -0.0175  -0.0000   0.0000   0.0000
  15 C_a :2px   -0.0000   0.0000   0.0000   0.0000  -0.6556   0.4451  -2.3500
  16 C_a :2py    0.0000   0.0000  -0.0000   0.0000   2.5260   1.4077  -1.6977
  17 C_a :2pz    0.0004   0.0317  -0.0367  -0.1089   0.0000  -0.0000  -0.0000
  23 C_a :3d2-   0.0000   0.0000   0.0000  -0.0000   0.0103   0.0129  -0.0076
  24 C_a :3d1-   0.0149   0.0183  -0.0077   0.0258   0.0000  -0.0000  -0.0000
  25 C_a :3d0    0.0000   0.0000  -0.0000  -0.0000  -0.0007  -0.0107   0.0139
  27 C_a :3d2+   0.0000   0.0000   0.0000   0.0000   0.0109   0.0090  -0.0087
  28 C_a :3d2-   0.0000   0.0000   0.0000   0.0000   0.1183   0.2742   0.0728
  29 C_a :3d1-  -0.0024   0.0048  -0.0042   0.0188   0.0000   0.0000   0.0000
  30 C_a :3d0    0.0000   0.0000   0.0000   0.0000   0.0057  -0.0807   0.2311
  32 C_a :3d2+   0.0000   0.0000  -0.0000  -0.0000  -0.0914   0.0381  -0.0622
  40 C_a :4f3-   0.0000   0.0000  -0.0000   0.0000   0.0047  -0.0148   0.0322
[...]
      ----------------------------------------------------------------
         1    1.79601D-01  0.00D+00  1.80D-01  9.17D+01    0.00000D+00
         2    1.85616D-01  0.00D+00  1.86D-01  9.53D+01    1.69000D-02
         3    2.06215D-01  0.00D+00  2.06D-01  1.07D+02    3.38000D-02

 ** RSPCTL MICROITERATION NUMBER    7

       No.  Residual tot.,    conf., and orb.    Bnorm      Frequency 
      ----------------------------------------------------------------
         1    5.31182D-02  0.00D+00  5.31D-02  9.17D+01    0.00000D+00
         2    5.53253D-02  0.00D+00  5.53D-02  9.53D+01    1.69000D-02
         3    6.30081D-02  0.00D+00  6.30D-02  1.07D+02    3.38000D-02

 *** THE REQUESTED    3 SOLUTION VECTORS CONVERGED

 Convergence of RSP solution vectors, threshold = 1.00D-03
 ---------------------------------------------------------------
 (dimension of paired reduced space:   42)
 RSP solution vector no.    1; norm of residual   5.79D-04
 RSP solution vector no.    2; norm of residual   5.81D-04
 RSP solution vector no.    3; norm of residual   5.88D-04

 *** RSPCTL MICROITERATIONS CONVERGED

@ QRLRVE: SINGLET SOLUTION FOR SYMMETRY    1  ( A  )    LABEL   YDIPLEN     FREQUENCY   0.000000D+00

@ QRLRVE:  << XDIPLEN  ; YDIPLEN  >> (   0.00000):    -231.000074954    

@ QRLRVE:  << YDIPLEN  ; YDIPLEN  >> (   0.00000):     1699.76329461    

@ QRLRVE:  << ZDIPLEN  ; YDIPLEN  >> (   0.00000):    1.006867122110E-13

@ QRLRVE: SINGLET SOLUTION FOR SYMMETRY    1  ( A  )    LABEL   YDIPLEN     FREQUENCY   0.169000D-01

@ QRLRVE:  << XDIPLEN  ; YDIPLEN  >> (   0.01690):    -237.578955210    

@ QRLRVE:  << YDIPLEN  ; YDIPLEN  >> (   0.01690):     1741.74125256    

@ QRLRVE:  << ZDIPLEN  ; YDIPLEN  >> (   0.01690):    1.033460102296E-13

@ QRLRVE: SINGLET SOLUTION FOR SYMMETRY    1  ( A  )    LABEL   YDIPLEN     FREQUENCY   0.338000D-01

@ QRLRVE:  << XDIPLEN  ; YDIPLEN  >> (   0.03380):    -259.786066198    

@ QRLRVE:  << YDIPLEN  ; YDIPLEN  >> (   0.03380):     1883.25288766    

@ QRLRVE:  << ZDIPLEN  ; YDIPLEN  >> (   0.03380):    1.123679752813E-13


 QRLRVE -- linear response calculation for symmetry  1  ( A  )
 QRLRVE -- operator label : ZDIPLEN 
 QRLRVE -- operator spin  :   0
 QRLRVE -- frequencies :  0.000000  0.016900  0.033800



 ---  SOLVING SETS OF LINEAR EQUATIONS FOR LINEAR RESPONSE PROPERTIES ---

 Operator symmetry = 1  ( A  ); triplet =   F


 ** RSPCTL MICROITERATION NUMBER    1

       No.  Residual tot.,    conf., and orb.    Bnorm      Frequency 
      ----------------------------------------------------------------
         1    3.91765D+00  0.00D+00  3.92D+00  1.01D+01    0.00000D+00
         2    3.92019D+00  0.00D+00  3.92D+00  1.01D+01    1.69000D-02
         3    3.92786D+00  0.00D+00  3.93D+00  1.02D+01    3.38000D-02

 ** RSPCTL MICROITERATION NUMBER    2

       No.  Residual tot.,    conf., and orb.    Bnorm      Frequency 
      ----------------------------------------------------------------
         1    9.74661D-01  0.00D+00  9.75D-01  1.05D+01    0.00000D+00
         2    9.76552D-01  0.00D+00  9.77D-01  1.06D+01    1.69000D-02
         3    9.82274D-01  0.00D+00  9.82D-01  1.06D+01    3.38000D-02

 ** RSPCTL MICROITERATION NUMBER    3

       No.  Residual tot.,    conf., and orb.    Bnorm      Frequency 
      ----------------------------------------------------------------
         1    1.93580D-01  0.00D+00  1.94D-01  1.06D+01    0.00000D+00
         2    1.94482D-01  0.00D+00  1.94D-01  1.06D+01    1.69000D-02
         3    1.97225D-01  0.00D+00  1.97D-01  1.07D+01    3.38000D-02

 ** RSPCTL MICROITERATION NUMBER    4

       No.  Residual tot.,    conf., and orb.    Bnorm      Frequency 
      ----------------------------------------------------------------
         1    5.89526D-02  0.00D+00  5.90D-02  1.06D+01    0.00000D+00
         2    5.96014D-02  0.00D+00  5.96D-02  1.06D+01    1.69000D-02
         3    6.16157D-02  0.00D+00  6.16D-02  1.07D+01    3.38000D-02

 ** RSPCTL MICROITERATION NUMBER    5

       No.  Residual tot.,    conf., and orb.    Bnorm      Frequency 
      ----------------------------------------------------------------
         1    2.06821D-02  0.00D+00  2.07D-02  1.06D+01    0.00000D+00
         2    2.11105D-02  0.00D+00  2.11D-02  1.06D+01    1.69000D-02
         3    2.24494D-02  0.00D+00  2.24D-02  1.07D+01    3.38000D-02

 ** RSPCTL MICROITERATION NUMBER    6

       No.  Residual tot.,    conf., and orb.    Bnorm      Frequency 
      ----------------------------------------------------------------
         1    7.64831D-03  0.00D+00  7.65D-03  1.06D+01    0.00000D+00
         2    7.86993D-03  0.00D+00  7.87D-03  1.06D+01    1.69000D-02
         3    8.56948D-03  0.00D+00  8.57D-03  1.07D+01    3.38000D-02

 *** THE REQUESTED    3 SOLUTION VECTORS CONVERGED

 Convergence of RSP solution vectors, threshold = 1.00D-03
 ---------------------------------------------------------------
 (dimension of paired reduced space:   36)
 RSP solution vector no.    1; norm of residual   7.23D-04
 RSP solution vector no.    2; norm of residual   7.42D-04
 RSP solution vector no.    3; norm of residual   8.02D-04

 *** RSPCTL MICROITERATIONS CONVERGED

@ QRLRVE: SINGLET SOLUTION FOR SYMMETRY    1  ( A  )    LABEL   ZDIPLEN     FREQUENCY   0.000000D+00

@ QRLRVE:  << XDIPLEN  ; ZDIPLEN  >> (   0.00000):    1.022686669186E-15

@ QRLRVE:  << YDIPLEN  ; ZDIPLEN  >> (   0.00000):    7.951818239894E-14

@ QRLRVE:  << ZDIPLEN  ; ZDIPLEN  >> (   0.00000):     160.495321952    

@ QRLRVE: SINGLET SOLUTION FOR SYMMETRY    1  ( A  )    LABEL   ZDIPLEN     FREQUENCY   0.169000D-01

@ QRLRVE:  << XDIPLEN  ; ZDIPLEN  >> (   0.01690):    1.527894528089E-15

@ QRLRVE:  << YDIPLEN  ; ZDIPLEN  >> (   0.01690):    8.154513486041E-14

@ QRLRVE:  << ZDIPLEN  ; ZDIPLEN  >> (   0.01690):     160.657468951    

@ QRLRVE: SINGLET SOLUTION FOR SYMMETRY    1  ( A  )    LABEL   ZDIPLEN     FREQUENCY   0.338000D-01

@ QRLRVE:  << XDIPLEN  ; ZDIPLEN  >> (   0.03380):    3.055353392117E-15

@ QRLRVE:  << YDIPLEN  ; ZDIPLEN  >> (   0.03380):    8.834845435123E-14

@ QRLRVE:  << ZDIPLEN  ; ZDIPLEN  >> (   0.03380):     161.147412057    
 
 ======================================================================
 ---  L I N E A R   R E S P O N S E   F U N C T I O N S --- 
 ======================================================================

 The -<<A;B>>(omega_b) functions from vectors generated
 in a *QUADRA calculation of <<A;B,C>>(omega_b,omega_c)

 Note: the accuracy of off-diagonal elements will be linear
 in the convergence threshold THCLR =  1.00D-03


 Perturbation symmetry.     KSYMOP:           1
 Perturbation spin symmetry.TRPLET:           F
 Orbital variables.         KZWOPT:      130462
 Configuration variables.   KZCONF:           0
 Total number of variables. KZVAR :      130462

@ Singlet linear response function in a.u.

@ A operator, symmetry, frequency:   XDIPLEN    1 -0.000000
@ B operator, symmetry, frequency:   XDIPLEN    1  0.000000

@ Value of linear response -<<A;B>>(omega):     257.283351120628

@ Singlet linear response function in a.u.

@ A operator, symmetry, frequency:   YDIPLEN    1 -0.000000
@ B operator, symmetry, frequency:   XDIPLEN    1  0.000000

@ Value of linear response -<<A;B>>(omega):    -231.043351065094

@ Singlet linear response function in a.u.

@ A operator, symmetry, frequency:   ZDIPLEN    1 -0.000000
@ B operator, symmetry, frequency:   XDIPLEN    1  0.000000

@ Value of linear response -<<A;B>>(omega):      -0.000000000000

@ Singlet linear response function in a.u.

@ A operator, symmetry, frequency:   XDIPLEN    1 -0.016900
@ B operator, symmetry, frequency:   XDIPLEN    1  0.016900

@ Value of linear response -<<A;B>>(omega):     258.583779977266

@ Singlet linear response function in a.u.

@ A operator, symmetry, frequency:   YDIPLEN    1 -0.016900
@ B operator, symmetry, frequency:   XDIPLEN    1  0.016900

@ Value of linear response -<<A;B>>(omega):    -237.624547579691

@ Singlet linear response function in a.u.

@ A operator, symmetry, frequency:   ZDIPLEN    1 -0.016900
@ B operator, symmetry, frequency:   XDIPLEN    1  0.016900

@ Value of linear response -<<A;B>>(omega):      -0.000000000000

@ Singlet linear response function in a.u.

@ A operator, symmetry, frequency:   XDIPLEN    1 -0.000000
@ B operator, symmetry, frequency:   YDIPLEN    1  0.000000

@ Value of linear response -<<A;B>>(omega):    -231.000074953895

@ Singlet linear response function in a.u.

@ A operator, symmetry, frequency:   YDIPLEN    1 -0.000000
@ B operator, symmetry, frequency:   YDIPLEN    1  0.000000

@ Value of linear response -<<A;B>>(omega):    1699.763294612604

@ Singlet linear response function in a.u.

@ A operator, symmetry, frequency:   ZDIPLEN    1 -0.000000
@ B operator, symmetry, frequency:   YDIPLEN    1  0.000000

@ Value of linear response -<<A;B>>(omega):       0.000000000000

@ Singlet linear response function in a.u.

@ A operator, symmetry, frequency:   XDIPLEN    1 -0.016900
@ B operator, symmetry, frequency:   YDIPLEN    1  0.016900

@ Value of linear response -<<A;B>>(omega):    -237.578955210092

@ Singlet linear response function in a.u.

@ A operator, symmetry, frequency:   YDIPLEN    1 -0.016900
@ B operator, symmetry, frequency:   YDIPLEN    1  0.016900

@ Value of linear response -<<A;B>>(omega):    1741.741252562640

@ Singlet linear response function in a.u.

@ A operator, symmetry, frequency:   ZDIPLEN    1 -0.016900
@ B operator, symmetry, frequency:   YDIPLEN    1  0.016900

@ Value of linear response -<<A;B>>(omega):       0.000000000000

@ Singlet linear response function in a.u.

@ A operator, symmetry, frequency:   XDIPLEN    1 -0.000000
@ B operator, symmetry, frequency:   ZDIPLEN    1  0.000000

@ Value of linear response -<<A;B>>(omega):       0.000000000000

@ Singlet linear response function in a.u.

@ A operator, symmetry, frequency:   YDIPLEN    1 -0.000000
@ B operator, symmetry, frequency:   ZDIPLEN    1  0.000000

@ Value of linear response -<<A;B>>(omega):       0.000000000000

@ Singlet linear response function in a.u.

@ A operator, symmetry, frequency:   ZDIPLEN    1 -0.000000
@ B operator, symmetry, frequency:   ZDIPLEN    1  0.000000

@ Value of linear response -<<A;B>>(omega):     160.495321952131

@ Singlet linear response function in a.u.

@ A operator, symmetry, frequency:   XDIPLEN    1 -0.016900
@ B operator, symmetry, frequency:   ZDIPLEN    1  0.016900

@ Value of linear response -<<A;B>>(omega):       0.000000000000

@ Singlet linear response function in a.u.

@ A operator, symmetry, frequency:   YDIPLEN    1 -0.016900
@ B operator, symmetry, frequency:   ZDIPLEN    1  0.016900

@ Value of linear response -<<A;B>>(omega):       0.000000000000

@ Singlet linear response function in a.u.

@ A operator, symmetry, frequency:   ZDIPLEN    1 -0.016900
@ B operator, symmetry, frequency:   ZDIPLEN    1  0.016900

@ Value of linear response -<<A;B>>(omega):     160.657468951255


  Results from quadratic response calculation
 --------------------------------------------

@ B-freq = 0.000000  C-freq = 0.000000     beta(X;X,X) =  -1255.52920890
@ B-freq = 0.000000  C-freq = 0.000000     beta(Y;X,X) =   5225.63722485
@ B-freq = 0.000000  C-freq = 0.000000     beta(Z;X,X) =      0.00000000
@ B-freq = 0.016900  C-freq = 0.000000     beta(X;X,X) =  -1310.43222006
@ B-freq = 0.016900  C-freq = 0.000000     beta(Y;X,X) =   5487.99883632
@ B-freq = 0.016900  C-freq = 0.000000     beta(Z;X,X) =      0.00000000
@ B-freq = 0.000000  C-freq = 0.000000     beta(X;Y,X) = beta(Y,X,X)
@ B-freq = 0.000000  C-freq = 0.000000     beta(X;Y,X) =   5225.63764912
@ B-freq = 0.000000  C-freq = 0.000000     beta(Y;Y,X) = -19623.33554554
@ B-freq = 0.000000  C-freq = 0.000000     beta(Z;Y,X) =     -0.00000000
@ B-freq = 0.016900  C-freq = 0.000000     beta(X;Y,X) =   5487.99927910
@ B-freq = 0.016900  C-freq = 0.000000     beta(Y;Y,X) = -20825.16577163
@ B-freq = 0.016900  C-freq = 0.000000     beta(Z;Y,X) =     -0.00000000
@ B-freq = 0.000000  C-freq = 0.000000     beta(X;Z,X) = beta(Z,X,X)
@ B-freq = 0.000000  C-freq = 0.000000     beta(Y;Z,X) = beta(Z,Y,X)
@ B-freq = 0.000000  C-freq = 0.000000     beta(X;Z,X) =      0.00000000
@ B-freq = 0.000000  C-freq = 0.000000     beta(Y;Z,X) =     -0.00000000
@ B-freq = 0.000000  C-freq = 0.000000     beta(Z;Z,X) =     11.95531395
@ B-freq = 0.016900  C-freq = 0.000000     beta(X;Z,X) =      0.00000000
@ B-freq = 0.016900  C-freq = 0.000000     beta(Y;Z,X) =     -0.00000000
@ B-freq = 0.016900  C-freq = 0.000000     beta(Z;Z,X) =     12.06774452
@ B-freq = 0.000000  C-freq = 0.016900     beta(X;X,X) = beta(X,X,X)
@ B-freq = 0.000000  C-freq = 0.016900     beta(Y;X,X) = beta(Y,X,X)
@ B-freq = 0.000000  C-freq = 0.016900     beta(Z;X,X) = beta(Z,X,X)
@ B-freq = 0.016900  C-freq = 0.016900     beta(X;X,X) =  -1433.62328971
@ B-freq = 0.016900  C-freq = 0.016900     beta(Y;X,X) =   6146.48356521
@ B-freq = 0.016900  C-freq = 0.016900     beta(Z;X,X) =      0.00000000
@ B-freq = 0.000000  C-freq = 0.016900     beta(X;Y,X) =   5432.39505391
@ B-freq = 0.000000  C-freq = 0.016900     beta(Y;Y,X) = -20564.79234755
@ B-freq = 0.000000  C-freq = 0.016900     beta(Z;Y,X) =     -0.00000000
@ B-freq = 0.016900  C-freq = 0.016900     beta(X;Y,X) =   5956.11940636
@ B-freq = 0.016900  C-freq = 0.016900     beta(Y;Y,X) = -23282.94570032
@ B-freq = 0.016900  C-freq = 0.016900     beta(Z;Y,X) =     -0.00000000
@ B-freq = 0.000000  C-freq = 0.016900     beta(X;Z,X) =      0.00000000
@ B-freq = 0.000000  C-freq = 0.016900     beta(Y;Z,X) =     -0.00000000
@ B-freq = 0.000000  C-freq = 0.016900     beta(Z;Z,X) =     12.03220111
@ B-freq = 0.016900  C-freq = 0.016900     beta(X;Z,X) =      0.00000000
@ B-freq = 0.016900  C-freq = 0.016900     beta(Y;Z,X) =     -0.00000000
@ B-freq = 0.016900  C-freq = 0.016900     beta(Z;Z,X) =     12.26500564
@ B-freq = 0.000000  C-freq = 0.000000     beta(X;X,Y) = beta(Y,X,X)
@ B-freq = 0.000000  C-freq = 0.000000     beta(Y;X,Y) = beta(Y,Y,X)
@ B-freq = 0.000000  C-freq = 0.000000     beta(Z;X,Y) = beta(Z,Y,X)
@ B-freq = 0.016900  C-freq = 0.000000     beta(X;X,Y) = beta(X,Y,X)
@ B-freq = 0.016900  C-freq = 0.000000     beta(Y;X,Y) = beta(Y,Y,X)
@ B-freq = 0.016900  C-freq = 0.000000     beta(Z;X,Y) = beta(Z,Y,X)
@ B-freq = 0.000000  C-freq = 0.000000     beta(X;Y,Y) = beta(Y,Y,X)
@ B-freq = 0.000000  C-freq = 0.000000     beta(X;Y,Y) = -19623.33824402
@ B-freq = 0.000000  C-freq = 0.000000     beta(Y;Y,Y) =  63700.06659442
@ B-freq = 0.000000  C-freq = 0.000000     beta(Z;Y,Y) =      0.00000000
@ B-freq = 0.016900  C-freq = 0.000000     beta(X;Y,Y) = -20564.79516711
@ B-freq = 0.016900  C-freq = 0.000000     beta(Y;Y,Y) =  67674.05335572
@ B-freq = 0.016900  C-freq = 0.000000     beta(Z;Y,Y) =      0.00000000
@ B-freq = 0.000000  C-freq = 0.000000     beta(X;Z,Y) = beta(Z,Y,X)
@ B-freq = 0.000000  C-freq = 0.000000     beta(Y;Z,Y) = beta(Z,Y,Y)
@ B-freq = 0.000000  C-freq = 0.000000     beta(X;Z,Y) =     -0.00000000
@ B-freq = 0.000000  C-freq = 0.000000     beta(Y;Z,Y) =      0.00000000
@ B-freq = 0.000000  C-freq = 0.000000     beta(Z;Z,Y) =    -34.72994732
@ B-freq = 0.016900  C-freq = 0.000000     beta(X;Z,Y) =     -0.00000000
@ B-freq = 0.016900  C-freq = 0.000000     beta(Y;Z,Y) =      0.00000000
@ B-freq = 0.016900  C-freq = 0.000000     beta(Z;Z,Y) =    -35.32312293
@ B-freq = 0.000000  C-freq = 0.016900     beta(X;X,Y) = beta(X,Y,X)
@ B-freq = 0.000000  C-freq = 0.016900     beta(Y;X,Y) = beta(Y,Y,X)
@ B-freq = 0.000000  C-freq = 0.016900     beta(Z;X,Y) = beta(Z,Y,X)
@ B-freq = 0.016900  C-freq = 0.016900     beta(X;X,Y) = beta(X,Y,X)
@ B-freq = 0.016900  C-freq = 0.016900     beta(Y;X,Y) = beta(Y,Y,X)
@ B-freq = 0.016900  C-freq = 0.016900     beta(Z;X,Y) = beta(Z,Y,X)
@ B-freq = 0.000000  C-freq = 0.016900     beta(X;Y,Y) = beta(X,Y,Y)
@ B-freq = 0.000000  C-freq = 0.016900     beta(Y;Y,Y) = beta(Y,Y,Y)
@ B-freq = 0.000000  C-freq = 0.016900     beta(Z;Y,Y) = beta(Z,Y,Y)
@ B-freq = 0.016900  C-freq = 0.016900     beta(X;Y,Y) = -22394.39358608
@ B-freq = 0.016900  C-freq = 0.016900     beta(Y;Y,Y) =  76781.58335359
@ B-freq = 0.016900  C-freq = 0.016900     beta(Z;Y,Y) =      0.00000000
@ B-freq = 0.000000  C-freq = 0.016900     beta(X;Z,Y) =     -0.00000000
@ B-freq = 0.000000  C-freq = 0.016900     beta(Y;Z,Y) =      0.00000000
@ B-freq = 0.000000  C-freq = 0.016900     beta(Z;Z,Y) =    -35.15013920
@ B-freq = 0.016900  C-freq = 0.016900     beta(X;Z,Y) =     -0.00000000
@ B-freq = 0.016900  C-freq = 0.016900     beta(Y;Z,Y) =      0.00000000
@ B-freq = 0.016900  C-freq = 0.016900     beta(Z;Z,Y) =    -36.38795968
@ B-freq = 0.000000  C-freq = 0.000000     beta(X;X,Z) = beta(Z,X,X)
@ B-freq = 0.000000  C-freq = 0.000000     beta(Y;X,Z) = beta(Z,Y,X)
@ B-freq = 0.000000  C-freq = 0.000000     beta(Z;X,Z) = beta(Z,Z,X)
@ B-freq = 0.016900  C-freq = 0.000000     beta(X;X,Z) = beta(X,Z,X)
@ B-freq = 0.016900  C-freq = 0.000000     beta(Y;X,Z) = beta(Y,Z,X)
@ B-freq = 0.016900  C-freq = 0.000000     beta(Z;X,Z) = beta(Z,Z,X)
@ B-freq = 0.000000  C-freq = 0.000000     beta(X;Y,Z) = beta(Z,Y,X)
@ B-freq = 0.000000  C-freq = 0.000000     beta(Y;Y,Z) = beta(Z,Y,Y)
@ B-freq = 0.000000  C-freq = 0.000000     beta(Z;Y,Z) = beta(Z,Z,Y)
@ B-freq = 0.016900  C-freq = 0.000000     beta(X;Y,Z) = beta(X,Z,Y)
@ B-freq = 0.016900  C-freq = 0.000000     beta(Y;Y,Z) = beta(Y,Z,Y)
@ B-freq = 0.016900  C-freq = 0.000000     beta(Z;Y,Z) = beta(Z,Z,Y)
@ B-freq = 0.000000  C-freq = 0.000000     beta(X;Z,Z) = beta(Z,Z,X)
@ B-freq = 0.000000  C-freq = 0.000000     beta(Y;Z,Z) = beta(Z,Z,Y)
@ B-freq = 0.000000  C-freq = 0.000000     beta(X;Z,Z) =     11.95529162
@ B-freq = 0.000000  C-freq = 0.000000     beta(Y;Z,Z) =    -34.72985526
@ B-freq = 0.000000  C-freq = 0.000000     beta(Z;Z,Z) =      0.00000000
@ B-freq = 0.016900  C-freq = 0.000000     beta(X;Z,Z) =     12.03217818
@ B-freq = 0.016900  C-freq = 0.000000     beta(Y;Z,Z) =    -35.15004346
@ B-freq = 0.016900  C-freq = 0.000000     beta(Z;Z,Z) =      0.00000000
@ B-freq = 0.000000  C-freq = 0.016900     beta(X;X,Z) = beta(X,Z,X)
@ B-freq = 0.000000  C-freq = 0.016900     beta(Y;X,Z) = beta(Y,Z,X)
@ B-freq = 0.000000  C-freq = 0.016900     beta(Z;X,Z) = beta(Z,Z,X)
@ B-freq = 0.016900  C-freq = 0.016900     beta(X;X,Z) = beta(X,Z,X)
@ B-freq = 0.016900  C-freq = 0.016900     beta(Y;X,Z) = beta(Y,Z,X)
@ B-freq = 0.016900  C-freq = 0.016900     beta(Z;X,Z) = beta(Z,Z,X)
@ B-freq = 0.000000  C-freq = 0.016900     beta(X;Y,Z) = beta(X,Z,Y)
@ B-freq = 0.000000  C-freq = 0.016900     beta(Y;Y,Z) = beta(Y,Z,Y)
@ B-freq = 0.000000  C-freq = 0.016900     beta(Z;Y,Z) = beta(Z,Z,Y)
@ B-freq = 0.016900  C-freq = 0.016900     beta(X;Y,Z) = beta(X,Z,Y)
@ B-freq = 0.016900  C-freq = 0.016900     beta(Y;Y,Z) = beta(Y,Z,Y)
@ B-freq = 0.016900  C-freq = 0.016900     beta(Z;Y,Z) = beta(Z,Z,Y)
@ B-freq = 0.000000  C-freq = 0.016900     beta(X;Z,Z) = beta(X,Z,Z)
@ B-freq = 0.000000  C-freq = 0.016900     beta(Y;Z,Z) = beta(Y,Z,Z)
@ B-freq = 0.000000  C-freq = 0.016900     beta(Z;Z,Z) = beta(Z,Z,Z)
@ B-freq = 0.016900  C-freq = 0.016900     beta(X;Z,Z) =     12.15235595
@ B-freq = 0.016900  C-freq = 0.016900     beta(Y;Z,Z) =    -35.83402021
@ B-freq = 0.016900  C-freq = 0.016900     beta(Z;Z,Z) =      0.00000000

  Total CPU  time used in RESPONSE:   1 hour   6 minutes 31 seconds
  Total wall time used in RESPONSE:   1 hour   6 minutes 33 seconds


                   .-------------------------------------------.
                   | End of Dynamic Property Section (RESPONS) |
                   `-------------------------------------------'

  Total CPU  time used in DALTON:   1 hour  28 minutes  9 seconds
  Total wall time used in DALTON:   1 hour  28 minutes 13 seconds

 
     Date and time (Linux)  : Tue May 27 17:24:06 2025
     Host name              : xm059                                   
