

     ************************************************************************
     *************** Dalton - An Electronic Structure Program ***************
     ************************************************************************

    This is output from DALTON release Dalton2020.0 (2020)
         ( Web site: http://daltonprogram.org )

   ----------------------------------------------------------------------------

    NOTE:
     
    Dalton is an experimental code for the evaluation of molecular
    properties using (MC)SCF, DFT, CI, and CC wave functions.
    The authors accept no responsibility for the performance of
    the code or for the correctness of the results.
     
    The code (in whole or part) is provided under a licence and
    is not to be reproduced for further distribution without
    the written permission of the authors or their representatives.
     
    See the home page "http://daltonprogram.org" for further information.
     
    If results obtained with this code are published,
    the appropriate citations would be both of:
     
       K. Aidas, C. Angeli, K. L. Bak, V. Bakken, R. Bast,
       L. Boman, O. Christiansen, R. Cimiraglia, S. Coriani,
       P. Dahle, E. K. Dalskov, U. Ekstroem,
       T. Enevoldsen, J. J. Eriksen, P. Ettenhuber, B. Fernandez,
       L. Ferrighi, H. Fliegl, L. Frediani, K. Hald, A. Halkier,
       C. Haettig, H. Heiberg, T. Helgaker, A. C. Hennum,
       H. Hettema, E. Hjertenaes, S. Hoest, I.-M. Hoeyvik,
       M. F. Iozzi, B. Jansik, H. J. Aa. Jensen, D. Jonsson,
       P. Joergensen, J. Kauczor, S. Kirpekar,
       T. Kjaergaard, W. Klopper, S. Knecht, R. Kobayashi, H. Koch,
       J. Kongsted, A. Krapp, K. Kristensen, A. Ligabue,
       O. B. Lutnaes, J. I. Melo, K. V. Mikkelsen, R. H. Myhre,
       C. Neiss, C. B. Nielsen, P. Norman, J. Olsen,
       J. M. H. Olsen, A. Osted, M. J. Packer, F. Pawlowski,
       T. B. Pedersen, P. F. Provasi, S. Reine, Z. Rinkevicius,
       T. A. Ruden, K. Ruud, V. Rybkin, P. Salek, C. C. M. Samson,
       A. Sanchez de Meras, T. Saue, S. P. A. Sauer,
       B. Schimmelpfennig, K. Sneskov, A. H. Steindal,
       K. O. Sylvester-Hvid, P. R. Taylor, A. M. Teale,
       E. I. Tellgren, D. P. Tew, A. J. Thorvaldsen, L. Thoegersen,
       O. Vahtras, M. A. Watson, D. J. D. Wilson, M. Ziolkowski
       and H. Agren,
       "The Dalton quantum chemistry program system",
       WIREs Comput. Mol. Sci. 2014, 4:269–284 (doi: 10.1002/wcms.1172)
     
    and
     
       Dalton, a molecular electronic structure program,
       Release Dalton2020.0 (2020), see http://daltonprogram.org
   ----------------------------------------------------------------------------

    Authors in alphabetical order (Major contribution(s) in parenthesis):

  Kestutis Aidas,           Vilnius University,           Lithuania   (QM/MM)
  Celestino Angeli,         University of Ferrara,        Italy       (NEVPT2)
  Keld L. Bak,              UNI-C,                        Denmark     (AOSOPPA, non-adiabatic coupling, magnetic properties)
  Vebjoern Bakken,          University of Oslo,           Norway      (DALTON; geometry optimizer, symmetry detection)
  Radovan Bast,             UiT The Arctic U. of Norway,  Norway      (DALTON installation and execution frameworks)
  Pablo Baudin,             University of Valencia,       Spain       (Cholesky excitation energies)
  Linus Boman,              NTNU,                         Norway      (Cholesky decomposition and subsystems)
  Bruno N. Cabral Tenorio,  Technical Univ. of Denmark,   Denmark     (Lanczos-based CC methods)
  Ove Christiansen,         Aarhus University,            Denmark     (CC module)
  Renzo Cimiraglia,         University of Ferrara,        Italy       (NEVPT2)
  Sonia Coriani,            Technical Univ. of Denmark,   Denmark     (CC and RESPONS modules)
  Janusz Cukras,            University of Warsaw,         Poland      (MChD in RESPONS)
  Paal Dahle,               University of Oslo,           Norway      (Parallelization)
  Erik K. Dalskov,          UNI-C,                        Denmark     (SOPPA)
  Thomas Enevoldsen,        Univ. of Southern Denmark,    Denmark     (SOPPA)
  Janus J. Eriksen,         Aarhus University,            Denmark     (Polarizable embedding, TDA)
  Rasmus Faber,             Technical Univ. of Denmark,   Denmark     (Vib.avg. NMR w. SOPPA, parallel AO-SOPPA, CVS-CC and EOMCC)
  Tobias Fahleson,          KTH Stockholm,                Sweden      (Damped cubic response)
  Berta Fernandez,          U. of Santiago de Compostela, Spain       (Doublet spin, ESR in RESPONS)
  Lara Ferrighi,            Aarhus University,            Denmark     (PCM Cubic response)
  Heike Fliegl,             University of Oslo,           Norway      (CCSD(R12))
  Luca Frediani,            UiT The Arctic U. of Norway,  Norway      (PCM)
  Emmanuel Fromager,        Univ. Strasbourg,             France      (MC-srDFT)
  Bin Gao,                  UiT The Arctic U. of Norway,  Norway      (Gen1Int library)
  Andre S. P. Gomes,        CNRS/Universite de Lille,     France      (Frozen density embedding)
  Christof Haettig,         Ruhr-University Bochum,       Germany     (CC module)
  Kasper Hald,              Aarhus University,            Denmark     (CC module)
  Asger Halkier,            Aarhus University,            Denmark     (CC module)
  Frederik Beyer Hansen,    University of Copenhagen,     Denmark     (Parallel AO-SOPPA)
  Erik D. Hedegaard,        Univ. of Southern Denmark,    Denmark     (Polarizable embedding, QM/MM, and MC-srDFT)
  Hanne Heiberg,            University of Oslo,           Norway      (Geometry analysis, selected one-electron integrals)
  Trygve Helgaker,          University of Oslo,           Norway      (DALTON; ABACUS, ERI, DFT modules, London, and much more)
  Alf Christian Hennum,     University of Oslo,           Norway      (Parity violation)
  Hinne Hettema,            University of Auckland,       New Zealand (Quadratic response in RESPONS; SIRIUS supersymmetry)
  Eirik Hjertenaes,         NTNU,                         Norway      (Cholesky decomposition)
  Pi A. B. Haase,           University of Copenhagen,     Denmark     (Triplet AO-SOPPA)
  Maria Francesca Iozzi,    University of Oslo,           Norway      (RPA)
  Christoph Jacob           TU Braunschweig               Germany     (Frozen density embedding)
  Brano Jansik              Technical Univ. of Ostrava    Czech Rep.  (DFT cubic response)
  Hans Joergen Aa. Jensen,  Univ. of Southern Denmark,    Denmark     (DALTON; SIRIUS, RESPONS, ABACUS, MC-srDFT, and much more)
  Dan Jonsson,              UiT The Arctic U. of Norway,  Norway      (Cubic response in RESPONS module)
  Poul Joergensen,          Aarhus University,            Denmark     (RESPONS, ABACUS, and CC modules)
  Maciej Kaminski,          University of Warsaw,         Poland      (CPPh in RESPONS)
  Joanna Kauczor,           Linkoeping University,        Sweden      (Complex polarization propagator (CPP) module)
  Sheela Kirpekar,          Univ. of Southern Denmark,    Denmark     (Mass-velocity & Darwin integrals)
  Erik Kjellgren,           Univ. of Southern Denmark,    Denmark     (MC-srDFT)
  Wim Klopper,              KIT Karlsruhe,                Germany     (R12 code in CC, SIRIUS, and ABACUS modules)
  Stefan Knecht,            ETH Zurich,                   Switzerland (Parallel CI and MCSCF, MC-srDFT)
  Rika Kobayashi,           Australian National Univ.,    Australia   (DIIS in CC, London in MCSCF)
  Henrik Koch,              NTNU,                         Norway      (CC module, Cholesky decomposition)
  Jacob Kongsted,           Univ. of Southern Denmark,    Denmark     (Polarizable embedding, polarizable density embedding, QM/MM)
  Andrea Ligabue,           University of Modena,         Italy       (CTOCD, AOSOPPA)
  Nanna H. List             Univ. of Southern Denmark,    Denmark     (Polarizable embedding)
  Ola B. Lutnaes,           University of Oslo,           Norway      (DFT Hessian)
  Juan I. Melo,             University of Buenos Aires,   Argentina   (LRESC, Relativistic Effects on NMR Shieldings)
  Kurt V. Mikkelsen,        University of Copenhagen,     Denmark     (MC-SCRF and QM/MM)
  Rolf H. Myhre,            NTNU,                         Norway      (Subsystems and CC3)
  Christian Neiss,          Univ. Erlangen-Nuernberg,     Germany     (CCSD(R12))
  Christian B. Nielsen,     University of Copenhagen,     Denmark     (QM/MM)
  Patrick Norman,           KTH Stockholm,                Sweden      (Cubic response and complex frequency response in RESPONS)
  Jeppe Olsen,              Aarhus University,            Denmark     (SIRIUS CI/density modules)
  Jogvan Magnus H. Olsen,   Aarhus University,            Denmark     (Polarizable embedding and polarizable density embedding)
  Anders Osted,             Copenhagen University,        Denmark     (QM/MM)
  Martin J. Packer,         University of Sheffield,      UK          (SOPPA)
  Filip Pawlowski,          Kazimierz Wielki University,  Poland      (CC3)
  Morten N. Pedersen,       Univ. of Southern Denmark,    Denmark     (Polarizable embedding)
  Thomas B. Pedersen,       University of Oslo,           Norway      (Cholesky decomposition)
  Patricio F. Provasi,      University of Northeastern,   Argentina   (Analysis of coupling constants in localized orbitals)
  Peter Reinholdt,          Univ. of Southern Denmark,    Denmark     (Polarizable embedding and polarizable density embedding)
  Zilvinas Rinkevicius,     KTH Stockholm,                Sweden      (open-shell DFT, ESR)
  Elias Rudberg,            KTH Stockholm,                Sweden      (DFT grid and basis info)
  Torgeir A. Ruden,         University of Oslo,           Norway      (Numerical derivatives in ABACUS)
  Kenneth Ruud,             UiT The Arctic U. of Norway,  Norway      (DALTON; ABACUS magnetic properties and much more)
  Pawel Salek,              KTH Stockholm,                Sweden      (DALTON; DFT code)
  Claire C. M. Samson       University of Karlsruhe       Germany     (Boys localization, r12 integrals in ERI)
  Alfredo Sanchez de Meras, University of Valencia,       Spain       (CC module, Cholesky decomposition)
  Trond Saue,               Paul Sabatier University,     France      (direct Fock matrix construction)
  Stephan P. A. Sauer,      University of Copenhagen,     Denmark     (SOPPA(CCSD), SOPPA prop., AOSOPPA, vibrational g-factors)
  Bernd Schimmelpfennig,    Forschungszentrum Karlsruhe,  Germany     (AMFI module)
  Anna K. Schnack-Petersen, University of Copenhagen,     Denmark     (RPA(D) and HRPA(D) properties in AOSOPPA)
  Kristian Sneskov,         Aarhus University,            Denmark     (Polarizable embedding, QM/MM)
  Arnfinn H. Steindal,      UiT The Arctic U. of Norway,  Norway      (parallel QM/MM, polarizable embedding)
  Casper Steinmann,         Aalborg University,           Denmark     (QFIT, polarizable embedding)
  K. O. Sylvester-Hvid,     University of Copenhagen,     Denmark     (MC-SCRF)
  Peter R. Taylor,          VLSCI/Univ. of Melbourne,     Australia   (Symmetry handling ABACUS, integral transformation)
  Andrew M. Teale,          University of Nottingham,     England     (DFT-AC, DFT-D)
  David P. Tew,             University of Bristol,        England     (CCSD(R12))
  Julien Toulouse,          Sorbonne Univ.,               France      (MC-srDFT)
  Olav Vahtras,             KTH Stockholm,                Sweden      (Triplet response, spin-orbit, ESR, TDDFT, open-shell DFT)
  Lucas Visscher,           Vrije Universiteit Amsterdam, Netherlands (Frozen density embedding)
  David J. Wilson,          La Trobe University,          Australia   (DFT Hessian and DFT magnetizabilities)
  Hans Agren,               KTH Stockholm,                Sweden      (SIRIUS module, RESPONS, MC-SCRF solvation)
 --------------------------------------------------------------------------------

     Date and time (Linux)  : Thu May 29 16:19:34 2025
     Host name              : xm009                                   

 * Work memory size             :   131072000 = 1000.00 megabytes.

 * Directories for basis set searches:
   1) /gpfs/projects/rjh/adrian/summer2025/beta_projects/raw_data/NLO/dalton/hf/n10/dipole
   2) /gpfs/projects/rjh/adrian/dalton/build/basis


Compilation information
-----------------------

 Who compiled             | ahurtado
 Host                     | milan2
 System                   | Linux-5.14.0-427.42.1.el9_4.x86_64
 CMake generator          | Unix Makefiles
 Processor                | x86_64
 64-bit integers          | OFF
 MPI                      | ON
 Fortran compiler         | /gpfs/software/openmpi/milan/gcc13.2/4.1.6/bin/mpi
                          | f90
 Fortran compiler version | GNU Fortran (GCC) 13.2.0
 C compiler               | /gpfs/software/openmpi/milan/gcc13.2/4.1.6/bin/mpi
                          | cc
 C compiler version       | gcc (GCC) 13.2.0
 C++ compiler             | /gpfs/software/openmpi/milan/gcc13.2/4.1.6/bin/mpi
                          | cxx
 C++ compiler version     | unknown
 BLAS                     | /gpfs/software/intel/oneAPI/2024_2/mkl/2024.2/lib/
                          | intel64/libmkl_gf_lp64.so;/gpfs/software/intel/one
                          | API/2024_2/mkl/2024.2/lib/intel64/libmkl_sequentia
                          | l.so;/gpfs/software/intel/oneAPI/2024_2/mkl/2024.2
                          | /lib/intel64/libmkl_core.so;/usr/lib64/libpthread.
                          | a;/usr/lib64/libm.so
 LAPACK                   | /gpfs/software/intel/oneAPI/2024_2/mkl/2024.2/lib/
                          | intel64/libmkl_lapack95_lp64.a;/gpfs/software/inte
                          | l/oneAPI/2024_2/mkl/2024.2/lib/intel64/libmkl_gf_l
                          | p64.so
 Static linking           | OFF
 Last Git revision        | 66052b3af5ea7225e31178bf9a8b031913c72190
 Git branch               | (HEAD detached at Dalton2020.0)
 Configuration time       | 2025-04-10 16:02:31.569498

 * MPI parallel run using 576 processes.


   Content of the .dal input file
 ----------------------------------

**DALTON INPUT
.RUN RESPONSE
.DIRECT
**WAVE FUNCTIONS
.HF
**PROPERTIES
**RESPONSE
*QUADRA
.DIPLEN
.FREQUENCIES
2
0.0 0.0169
**END OF DALTON INPUT


   Content of the .mol file
 ----------------------------

BASIS
d-aug-cc-pVDZ
blah
blah
Atomtype=4 Angstrom Charge=0 Nosymmetry
Charge=6 Atoms=20
C_a 0.2946710015267907 -3.266199999486508 0.0
C_b 0.6245919999195884 -1.9307299988330624 0.0
C_c -0.3385019984549477 -0.8630230000153507 0.0
C_d 0.0 0.47111999882221456 0.0
C_e -0.9552849990697163 1.5451879987596455 0.0
C_f -0.6082440013478295 2.877386001467621 0.0
C_g -1.555175001503457 3.958941001668951 0.0
C_h -1.1977470012759852 5.288136997936112 0.0
C_i -2.1338350016318213 6.3800070007917435 0.0
C_j -1.761537000073764 7.704197001813054 0.0
C_k -2.6806309981943715 8.812358000271312 0.0
C_l -2.2820919983604475 10.126833000926869 0.0
C_m -3.167824998212204 11.263664000434547 0.0
C_n -2.7016550023951784 12.551621999856467 0.0
C_o 2.3678599981867356 -10.402918002330763 0.0
C_p 2.6495470018370852 -9.079618998146143 0.0
C_q 1.6321410009891035 -8.051510001912998 0.0
C_r 1.9347320020324241 -6.715005999573447 0.0
C_s 0.9482450000874422 -5.6635319985360715 0.0
C_t 1.2670480011593794 -4.327153998582152 0.0
Charge=7 Atoms=2
N_a -3.4652040006133333 13.68741600253503 0.0
N_b 3.4325029974534025 -11.399971000972839 0.0
Charge=8 Atoms=2
O_a 3.0580200020254003 -12.578901000398153 0.0
O_b 4.605280999590125 -11.019595998311617 0.0
Charge=1 Atoms=22
H_a -0.7684819987595649 -3.547291001428025 0.0
H_b 1.6894250002637465 -1.6539350003656121 0.0
H_c -1.4038429983378047 -1.1362099994674155 0.0
H_d 1.0667820023452326 0.7405630007157517 0.0
H_e -2.022512002406718 1.2792110017605547 0.0
H_f 0.4605430005309105 3.1391810009309125 0.0
H_g -2.6244310025604696 3.7011640024320998 0.0
H_h -0.12645900206417662 5.540217002325421 0.0
H_i -3.205656998858689 6.133309998660255 0.0
H_j -0.6865369973575849 7.9413919974060825 0.0
H_k -3.7562339983421094 8.583863000819797 0.0
H_l -1.2008399997381745 10.335589002490018 0.0
H_m -4.251344997441688 11.082428002590138 0.0
H_n -1.6194549986753068 12.732716998433094 0.0
H_o -4.474556998544655 13.633253000488795 0.0
H_p -3.0387519983133924 14.600879999642967 0.0
H_q 1.3717300010190543 -10.849470001920414 0.0
H_r 3.705443998295543 -8.783211999029117 0.0
H_s 0.5784399999948003 -8.361977001387782 0.0
H_t 2.9935139985586456 -6.417049998217119 0.0
H_u 2.329441002427543 -4.041303000004711 0.0
H_v -0.11158199971909401 -5.956019001046073 0.0


       *******************************************************************
       *********** Output from DALTON general input processing ***********
       *******************************************************************

 --------------------------------------------------------------------------------
   Overall default print level:    0
   Print level for DALTON.STAT:    1

    Parallel calculation using MPI
    AO-direct calculation (in sections where implemented)
    HERMIT 1- and 2-electron integral sections will be executed
    "Old" integral transformation used (limited to max 255 basis functions)
    Wave function sections will be executed (SIRIUS module)
    Dynamic molecular response properties section will be executed (RESPONSE module)
 --------------------------------------------------------------------------------


   ****************************************************************************
   *************** Output of molecule and basis set information ***************
   ****************************************************************************


    The two title cards from your ".mol" input:
    ------------------------------------------------------------------------
 1: blah                                                                    
 2: blah                                                                    
    ------------------------------------------------------------------------

  Coordinates are entered in Angstrom and converted to atomic units.
          - Conversion factor : 1 bohr = 0.52917721 A

  Atomic type no.    1
  --------------------
  Nuclear charge:   6.00000
  Number of symmetry independent centers:   20
  Number of basis sets to read;    2
  Basis set file used for this atomic type with Z =   6 :
     "/gpfs/projects/rjh/adrian/dalton/build/basis/aug-cc-pVDZ"

  Atomic type no.    2
  --------------------
  Nuclear charge:   7.00000
  Number of symmetry independent centers:    2
  Number of basis sets to read;    2
  Basis set file used for this atomic type with Z =   7 :
     "/gpfs/projects/rjh/adrian/dalton/build/basis/aug-cc-pVDZ"

  Atomic type no.    3
  --------------------
  Nuclear charge:   8.00000
  Number of symmetry independent centers:    2
  Number of basis sets to read;    2
  Basis set file used for this atomic type with Z =   8 :
     "/gpfs/projects/rjh/adrian/dalton/build/basis/aug-cc-pVDZ"

  Atomic type no.    4
  --------------------
  Nuclear charge:   1.00000
  Number of symmetry independent centers:   22
  Number of basis sets to read;    2
  Basis set file used for this atomic type with Z =   1 :
     "/gpfs/projects/rjh/adrian/dalton/build/basis/aug-cc-pVDZ"


                         SYMGRP: Point group information
                         -------------------------------

@    Point group: C1 


                                 Isotopic Masses
                                 ---------------

                           C_a        12.000000
                           C_b        12.000000
                           C_c        12.000000
                           C_d        12.000000
                           C_e        12.000000
                           C_f        12.000000
                           C_g        12.000000
                           C_h        12.000000
                           C_i        12.000000
                           C_j        12.000000
                           C_k        12.000000
                           C_l        12.000000
                           C_m        12.000000
                           C_n        12.000000
                           C_o        12.000000
                           C_p        12.000000
                           C_q        12.000000
                           C_r        12.000000
                           C_s        12.000000
                           C_t        12.000000
                           N_a        14.003074
                           N_b        14.003074
                           O_a        15.994915
                           O_b        15.994915
                           H_a         1.007825
                           H_b         1.007825
                           H_c         1.007825
                           H_d         1.007825
                           H_e         1.007825
                           H_f         1.007825
                           H_g         1.007825
                           H_h         1.007825
                           H_i         1.007825
                           H_j         1.007825
                           H_k         1.007825
                           H_l         1.007825
                           H_m         1.007825
                           H_n         1.007825
                           H_o         1.007825
                           H_p         1.007825
                           H_q         1.007825
                           H_r         1.007825
                           H_s         1.007825
                           H_t         1.007825
                           H_u         1.007825
                           H_v         1.007825

                       Total mass:   322.168128 amu
                       Natural abundance:  78.920 %

 Center-of-mass coordinates (a.u.):    0.087622   -0.282661    0.000000
 Center-of-mass coordinates (Angs):    0.046368   -0.149578    0.000000


  Atoms and basis sets
  --------------------

  Number of atom types :    4
  Total number of atoms:   46

  Basis set used is "d-aug-cc-pVDZ" from the basis set library.

  label    atoms   charge   prim   cont     basis
  ----------------------------------------------------------------------
  C_         20    6.0000    44    32      [11s6p3d|5s4p3d]                                   
  N_          2    7.0000    44    32      [11s6p3d|5s4p3d]                                   
  O_          2    8.0000    44    32      [11s6p3d|5s4p3d]                                   
  H_         22    1.0000    15    13      [6s3p|4s3p]                                        
  ----------------------------------------------------------------------
  total:     46  172.0000  1386  1054
  ----------------------------------------------------------------------
  Spherical harmonic basis used.

  Threshold for neglecting AO integrals:  1.00D-12

  Max    interatomic separation is   27.8552 Angstrom (   52.6387 Bohr)
  between atoms   40 and   23, "H_p   " and "O_a   ".

  Min HX interatomic separation is    1.0081 Angstrom (    1.9050 Bohr)

  Min YX interatomic separation is    1.2329 Angstrom (    2.3299 Bohr)


  Bond distances (Angstrom):
  --------------------------

                  atom 1     atom 2       distance
                  ------     ------       --------
  bond distance:  C_b        C_a          1.375619
  bond distance:  C_c        C_b          1.437897
  bond distance:  C_d        C_c          1.376416
  bond distance:  C_e        C_d          1.437425
  bond distance:  C_f        C_e          1.376659
  bond distance:  C_g        C_f          1.437512
  bond distance:  C_h        C_g          1.376414
  bond distance:  C_i        C_h          1.438208
  bond distance:  C_j        C_i          1.375531
  bond distance:  C_k        C_j          1.439706
  bond distance:  C_l        C_k          1.373564
  bond distance:  C_m        C_l          1.441148
  bond distance:  C_n        C_m          1.369726
  bond distance:  C_p        C_o          1.352948
  bond distance:  C_q        C_p          1.446417
  bond distance:  C_r        C_q          1.370330
  bond distance:  C_s        C_r          1.441789
  bond distance:  C_t        C_a          1.439146
  bond distance:  C_t        C_s          1.373878
  bond distance:  N_a        C_n          1.368589
  bond distance:  N_b        C_o          1.458622
  bond distance:  O_a        N_b          1.236978
  bond distance:  O_b        N_b          1.232921
  bond distance:  H_a        C_a          1.099685
  bond distance:  H_b        C_b          1.100220
  bond distance:  H_c        C_c          1.099810
  bond distance:  H_d        C_d          1.100283
  bond distance:  H_e        C_e          1.099871
  bond distance:  H_f        C_f          1.100383
  bond distance:  H_g        C_g          1.099890
  bond distance:  H_h        C_h          1.100546
  bond distance:  H_i        C_i          1.099846
  bond distance:  H_j        C_j          1.100857
  bond distance:  H_k        C_k          1.099605
  bond distance:  H_l        C_l          1.101220
  bond distance:  H_m        C_m          1.098573
  bond distance:  H_n        C_n          1.097248
  bond distance:  H_o        N_a          1.010805
  bond distance:  H_p        N_a          1.008106
  bond distance:  H_q        C_o          1.091643
  bond distance:  H_r        C_p          1.096711
  bond distance:  H_s        C_q          1.098488
  bond distance:  H_t        C_r          1.099908
  bond distance:  H_u        C_t          1.100177
  bond distance:  H_v        C_s          1.099446


  Bond angles (degrees):
  ----------------------

                  atom 1     atom 2     atom 3         angle
                  ------     ------     ------         -----
  bond angle:     C_b        C_a        C_t          123.618
  bond angle:     C_b        C_a        H_a          118.687
  bond angle:     C_t        C_a        H_a          117.696
  bond angle:     C_a        C_b        C_c          124.072
  bond angle:     C_a        C_b        H_b          118.448
  bond angle:     C_c        C_b        H_b          117.480
  bond angle:     C_b        C_c        C_d          123.712
  bond angle:     C_b        C_c        H_c          117.669
  bond angle:     C_d        C_c        H_c          118.619
  bond angle:     C_c        C_d        C_e          124.113
  bond angle:     C_c        C_d        H_d          118.412
  bond angle:     C_e        C_d        H_d          117.475
  bond angle:     C_d        C_e        C_f          123.749
  bond angle:     C_d        C_e        H_e          117.656
  bond angle:     C_f        C_e        H_e          118.595
  bond angle:     C_e        C_f        C_g          124.196
  bond angle:     C_e        C_f        H_f          118.365
  bond angle:     C_g        C_f        H_f          117.440
  bond angle:     C_f        C_g        C_h          123.746
  bond angle:     C_f        C_g        H_g          117.649
  bond angle:     C_h        C_g        H_g          118.605
  bond angle:     C_g        C_h        C_i          124.342
  bond angle:     C_g        C_h        H_h          118.292
  bond angle:     C_i        C_h        H_h          117.366
  bond angle:     C_h        C_i        C_j          123.689
  bond angle:     C_h        C_i        H_i          117.646
  bond angle:     C_j        C_i        H_i          118.665
  bond angle:     C_i        C_j        C_k          124.625
  bond angle:     C_i        C_j        H_j          118.146
  bond angle:     C_k        C_j        H_j          117.229
  bond angle:     C_j        C_k        C_l          123.461
  bond angle:     C_j        C_k        H_k          117.679
  bond angle:     C_l        C_k        H_k          118.860
  bond angle:     C_k        C_l        C_m          125.210
  bond angle:     C_k        C_l        H_l          117.794
  bond angle:     C_m        C_l        H_l          116.995
  bond angle:     C_l        C_m        C_n          122.179
  bond angle:     C_l        C_m        H_m          118.427
  bond angle:     C_n        C_m        H_m          119.393
  bond angle:     C_m        C_n        N_a          126.191
  bond angle:     C_m        C_n        H_n          119.397
  bond angle:     N_a        C_n        H_n          114.412
  bond angle:     C_p        C_o        N_b          121.105
  bond angle:     C_p        C_o        H_q          126.163
  bond angle:     N_b        C_o        H_q          112.732
  bond angle:     C_o        C_p        C_q          123.283
  bond angle:     C_o        C_p        H_r          117.697
  bond angle:     C_q        C_p        H_r          119.020
  bond angle:     C_p        C_q        C_r          122.543
  bond angle:     C_p        C_q        H_s          118.283
  bond angle:     C_r        C_q        H_s          119.174
  bond angle:     C_q        C_r        C_s          124.069
  bond angle:     C_q        C_r        H_t          118.474
  bond angle:     C_s        C_r        H_t          117.456
  bond angle:     C_r        C_s        C_t          123.409
  bond angle:     C_r        C_s        H_v          117.745
  bond angle:     C_t        C_s        H_v          118.846
  bond angle:     C_a        C_t        C_s          124.077
  bond angle:     C_a        C_t        H_u          117.446
  bond angle:     C_s        C_t        H_u          118.477
  bond angle:     C_n        N_a        H_o          120.840
  bond angle:     C_n        N_a        H_p          121.063
  bond angle:     H_o        N_a        H_p          118.097
  bond angle:     C_o        N_b        O_a          115.500
  bond angle:     C_o        N_b        O_b          118.908
  bond angle:     O_a        N_b        O_b          125.592




 Principal moments of inertia (u*A**2) and principal axes
 --------------------------------------------------------

   IA     123.802576         -0.260153    0.965567    0.000000
   IB   23743.393156          0.965567    0.260153    0.000000
   IC   23867.195731          0.000000    0.000000    1.000000


 Rotational constants
 --------------------

@    The molecule is planar.

               A                   B                   C

           4082.1364             21.2850             21.1746 MHz
            0.136165            0.000710            0.000706 cm-1


@  Nuclear repulsion energy : 1425.837764718247 Hartree


                     .---------------------------------------.
                     | Starting in Integral Section (HERMIT) |
                     `---------------------------------------'



 ***************************************************************************************
 ****************** Output from **INTEGRALS input processing (HERMIT) ******************
 ***************************************************************************************


 - Using defaults, no **INTEGRALS input found

 Default print level:        1

 Calculation of one-electron Hamiltonian integrals.

 Center of mass  (bohr):      0.087621939018     -0.282661092379      0.000000000000
 Operator center (bohr):      0.000000000000      0.000000000000      0.000000000000
 Gauge origin    (bohr):      0.000000000000      0.000000000000      0.000000000000
 Dipole origin   (bohr):      0.000000000000      0.000000000000      0.000000000000


     ************************************************************************
     ************************** Output from HERINT **************************
     ************************************************************************



                      Nuclear contribution to dipole moments
                      --------------------------------------

                 au               Debye          C m (/(10**-30)

      x     -0.00003395        -0.00008629        -0.00028784
      y      0.00001145         0.00002910         0.00009708
      z      0.00000000         0.00000000         0.00000000


  Time used in ONEDRV     is       2.51 seconds
  Time used in HUCKEL     is       0.57 seconds
  Time used in OVERLAP    is       0.30 seconds
  Time used in POPOVLP    is       0.59 seconds
  Time used in R2         is       0.37 seconds
  Time used in R4         is       0.43 seconds
  Time used in DIPLEN     is       0.39 seconds
  Time used in QUADRUP    is       0.76 seconds
  Time used in KINENE     is       0.54 seconds
  Time used in GABGEN     is       2.26 seconds
  Total CPU  time used in HERMIT:   8.72 seconds
  Total wall time used in HERMIT:  11.25 seconds


                        .----------------------------------.
                        | End of Integral Section (HERMIT) |
                        `----------------------------------'



                   .--------------------------------------------.
                   | Starting in Wave Function Section (SIRIUS) |
                   `--------------------------------------------'



@ Primary orbitals are deleted during canonical orthonormalization
@   because of detected numerical linear dependence or too large coefficients.
@ Eigenvalue threshold for num. lin. dep. =  1.00D-06

@  75 MO components are deleted in symmetry    1
 Overlap eigenvalues of the deleted orbitals:
  9.52D-07  9.33D-07  8.87D-07  8.81D-07  7.93D-07
  7.54D-07  7.11D-07  6.12D-07  5.61D-07  5.20D-07
  4.51D-07  4.11D-07  3.83D-07  3.64D-07  3.60D-07
  3.07D-07  3.05D-07  2.59D-07  2.40D-07  2.36D-07
  2.23D-07  2.11D-07  1.86D-07  1.70D-07  1.60D-07
  1.59D-07  1.41D-07  1.36D-07  1.29D-07  1.23D-07
  1.20D-07  1.01D-07  9.57D-08  9.44D-08  8.80D-08
  7.71D-08  6.17D-08  5.91D-08  4.92D-08  4.16D-08
  3.52D-08  3.21D-08  2.97D-08  2.70D-08  2.55D-08
  2.45D-08  2.12D-08  1.99D-08  1.74D-08  1.64D-08
  1.51D-08  1.17D-08  1.12D-08  1.06D-08  9.80D-09
  9.03D-09  8.44D-09  7.59D-09  6.88D-09  5.36D-09
  5.05D-09  4.50D-09  4.01D-09  3.53D-09  3.29D-09
  3.24D-09  3.13D-09  1.81D-09  1.52D-09  1.33D-09
  1.13D-09  5.27D-10  4.05D-10  3.48D-10  2.78D-10

 Max MO coeff. of last deleted MO & limit:  2.16D+02  1.00D+03

WARNING: Orbitals have been deleted because of numerical
   linear dependence although not requested in input.

 *** Output from Huckel module :

     Using EWMO model:          T
     Using EHT  model:          F
     Number of Huckel orbitals each symmetry:  142

 EWMO - Energy Weighted Maximum Overlap - is a Huckel type method,
        which normally is better than Extended Huckel Theory.
 Reference: Linderberg and Ohrn, Propagators in Quantum Chemistry (Wiley, 1973)

 Huckel EWMO eigenvalues for symmetry :  1
          -20.684753     -20.683496     -15.677080     -15.674964     -11.359368
          -11.359302     -11.359062     -11.358888     -11.358582     -11.357574
          -11.356157     -11.354494     -11.352766     -11.351191     -11.348506
          -11.347552     -11.346663     -11.345992     -11.345570     -11.345479
          -11.345369     -11.345339     -11.345215     -11.345203      -1.964077
           -1.792384      -1.787141      -1.772335      -1.742277      -1.692755
           -1.622960      -1.535967      -1.451227      -1.427490      -1.326648
           -1.219500      -1.206885      -1.173981      -1.129097      -1.108904
           -1.065198      -1.005942      -0.996580      -0.925568      -0.916328
           -0.857659      -0.852028      -0.842296      -0.815904      -0.780561
           -0.755959      -0.753965      -0.734522      -0.719460      -0.695411
           -0.674852      -0.665561      -0.647033      -0.626031      -0.625571
           -0.599084      -0.586020      -0.580790      -0.573644      -0.554516
           -0.537734      -0.531917      -0.523196      -0.514248      -0.504370
           -0.495268      -0.490991      -0.489712      -0.484424      -0.481458
           -0.480464      -0.475271      -0.475253      -0.474802      -0.447668
           -0.430487      -0.412492      -0.391551      -0.383829      -0.365176
           -0.358684      -0.335586      -0.300513      -0.276068      -0.255233
           -0.238103      -0.229143      -0.224427      -0.213845      -0.205944
           -0.200925      -0.200303      -0.196553      -0.194412      -0.190574
           -0.166681      -0.142733      -0.138957      -0.134556      -0.132032
           -0.131424      -0.130762      -0.129973      -0.129719      -0.129539
           -0.128841      -0.128513      -0.127651      -0.127530      -0.126687
           -0.126625      -0.125871      -0.125583      -0.124540      -0.124313
           -0.123705      -0.123161      -0.112026      -0.111102      -0.106874
           -0.105594      -0.101449      -0.099777      -0.096280      -0.094508
           -0.092347      -0.090534      -0.089213      -0.087866      -0.086793
           -0.085937      -0.085294      -0.084324      -0.082818      -0.081351
           -0.080075      -0.079349

 **********************************************************************
 *SIRIUS* a direct, restricted step, second order MCSCF program       *
 **********************************************************************

 
     Date and time (Linux)  : Thu May 29 16:20:49 2025
     Host name              : xm009                                   

 Title lines from ".mol" input file:
     blah                                                                    
     blah                                                                    

 Print level on unit LUPRI =   2 is   0
 Print level on unit LUW4  =   2 is   5

@    Restricted, closed shell Hartree-Fock calculation.

@    Time-dependent Hartree-Fock calculation (random phase approximation).
 Fock matrices are calculated directly and in parallel without use of integrals on disk.

 Initial molecular orbitals are obtained according to
 ".MOSTART EWMO  " input option

     Wave function specification
     ============================
@    Wave function type        --- HF ---
@    Number of closed shell electrons         172
@    Number of electrons in active shells       0
@    Total charge of the molecule               0

@    Spin multiplicity and 2 M_S                1         0
@    Total number of symmetries                 1 (point group: C1 )
@    Reference state symmetry                   1 (irrep name : A  )

     Orbital specifications
     ======================
@    Abelian symmetry species          All |    1
@                                          |  A  
                                       --- |  ---
@    Occupied SCF orbitals              86 |   86
@    Secondary orbitals                893 |  893
@    Total number of orbitals          979 |  979
@    Number of basis functions        1054 | 1054

     Optimization information
     ========================
@    Number of configurations                 1
@    Number of orbital rotations          76798
     ------------------------------------------
@    Total number of variables            76799

     Maximum number of Fock   iterations      0
     Maximum number of DIIS   iterations     60
     Maximum number of QC-SCF iterations     60
     Threshold for SCF convergence     1.00D-05

    INFORMATION: Switched to "new" integral transformation (from 1988 ;-) )
    because more than 255 basis functions.


 ***********************************************
 ***** DIIS acceleration of SCF iterations *****
 ***********************************************

 C1-DIIS algorithm; max error vectors =    8

 Iter      Total energy        Error norm    Delta(E)  DIIS dim.
 -----------------------------------------------------------------------------
   1  Screening settings (-IFTHRS, JTDIIS, DIFDEN, times)  -10    1    T  1.45D+01  1.46D+01
@  1    -1024.84096934        7.23432D+00   -1.02D+03    1
      Virial theorem: -V/T =      2.011627
@    MULPOP   C_a     0.35; C_b     0.50; C_c     0.42; C_d     0.42; C_e     0.39; C_f     0.46; C_g     0.37; C_h     0.55; C_i     0.47; C_j     0.66; 
@             C_k     0.32; C_l     0.76; C_m     0.07; C_n     1.03; C_o     0.95; C_p     0.34; C_q     0.48; C_r     0.49; C_s     0.53; C_t     0.60; 
@             N_a    -0.32; N_b     0.78; O_a    -1.15; O_b    -1.21; H_a    -0.44; H_b    -0.41; H_c    -0.40; H_d    -0.45; H_e    -0.41; H_f    -0.43; 
@    MULPOP    dipole moment & components:     30.6065;       -9.5831     29.0676      0.0000
   1  Level shift: doubly occupied orbital energies shifted by -2.00D-01
 -----------------------------------------------------------------------------
   2  Screening settings (-IFTHRS, JTDIIS, DIFDEN, times)  -10    2    T  1.05D+01  1.07D+01
@  2    -1028.12916492        2.83570D+00   -3.29D+00    2
      Virial theorem: -V/T =      2.001226
@    MULPOP   C_a     0.95; C_b     0.40; C_c     0.78; C_d     0.75; C_e     0.90; C_f     0.68; C_g     0.65; C_h     0.84; C_i     0.90; C_j     1.05; 
@             C_k     0.37; C_l     0.84; C_m     0.90; C_n    -0.20; C_o     0.36; C_p     0.27; C_q     0.60; C_r     0.43; C_s     0.91; C_t     1.03; 
@             N_a     0.24; N_b     0.53; O_a    -0.42; O_b    -0.66; H_a    -0.72; H_b    -0.64; H_c    -0.56; H_d    -0.63; H_e    -0.64; H_f    -0.67; 
@    MULPOP    dipole moment & components:     10.6601;       -5.5290      9.1141      0.0000
   2  Level shift: doubly occupied orbital energies shifted by -1.00D-01
 -----------------------------------------------------------------------------
   3  Screening settings (-IFTHRS, JTDIIS, DIFDEN, times)  -10    3    T  1.04D+01  1.05D+01
@  3    -1028.58036226        9.31699D-01   -4.51D-01    3
      Virial theorem: -V/T =      2.001224
@    MULPOP   C_a     1.02; C_b     0.30; C_c     0.79; C_d     0.75; C_e     0.90; C_f     0.60; C_g     0.65; C_h     0.82; C_i     0.89; C_j     1.03; 
@             C_k     0.18; C_l     0.68; C_m     0.77; C_n    -0.16; C_o     0.70; C_p     0.12; C_q     0.54; C_r     0.28; C_s     0.88; C_t     1.03; 
@             N_a     0.15; N_b     0.63; O_a    -0.71; O_b    -0.80; H_a    -0.67; H_b    -0.59; H_c    -0.50; H_d    -0.57; H_e    -0.60; H_f    -0.62; 
@    MULPOP    dipole moment & components:      9.2603;       -5.7035      7.2955      0.0000
   3  Level shift: doubly occupied orbital energies shifted by -5.00D-02
 -----------------------------------------------------------------------------
   4  Screening settings (-IFTHRS, JTDIIS, DIFDEN, times)  -10    4    T  1.03D+01  1.04D+01
@  4    -1028.64314487        2.86880D-01   -6.28D-02    4
      Virial theorem: -V/T =      2.002724
@    MULPOP   C_a     1.02; C_b     0.27; C_c     0.76; C_d     0.72; C_e     0.89; C_f     0.56; C_g     0.64; C_h     0.78; C_i     0.86; C_j     0.95; 
@             C_k     0.13; C_l     0.59; C_m     0.79; C_n    -0.16; C_o     0.60; C_p     0.10; C_q     0.54; C_r     0.25; C_s     0.87; C_t     1.00; 
@             N_a     0.16; N_b     0.43; O_a    -0.57; O_b    -0.76; H_a    -0.63; H_b    -0.56; H_c    -0.47; H_d    -0.54; H_e    -0.57; H_f    -0.58; 
@    MULPOP    dipole moment & components:      8.5735;       -5.6951      6.4087      0.0000
   4  Level shift: doubly occupied orbital energies shifted by -2.50D-02
 -----------------------------------------------------------------------------
   5  Screening settings (-IFTHRS, JTDIIS, DIFDEN, times)  -10    5    T  1.02D+01  1.03D+01
@  5    -1028.65613553        1.20193D-01   -1.30D-02    5
      Virial theorem: -V/T =      2.002198
@    MULPOP   C_a     1.03; C_b     0.25; C_c     0.76; C_d     0.69; C_e     0.88; C_f     0.55; C_g     0.63; C_h     0.78; C_i     0.85; C_j     0.93; 
@             C_k     0.13; C_l     0.57; C_m     0.80; C_n    -0.20; C_o     0.65; C_p     0.02; C_q     0.57; C_r     0.20; C_s     0.88; C_t     0.96; 
@             N_a     0.15; N_b     0.43; O_a    -0.60; O_b    -0.73; H_a    -0.62; H_b    -0.55; H_c    -0.45; H_d    -0.53; H_e    -0.55; H_f    -0.57; 
@    MULPOP    dipole moment & components:      7.7753;       -5.6258      5.3671      0.0000
   5  Level shift: doubly occupied orbital energies shifted by -1.25D-02
 -----------------------------------------------------------------------------
   6  Screening settings (-IFTHRS, JTDIIS, DIFDEN, times)  -10    6    T  1.02D+01  1.02D+01
@  6    -1028.65981043        6.31234D-02   -3.67D-03    6
      Virial theorem: -V/T =      2.002062
@    MULPOP   C_a     1.03; C_b     0.23; C_c     0.76; C_d     0.68; C_e     0.88; C_f     0.54; C_g     0.63; C_h     0.77; C_i     0.84; C_j     0.92; 
@             C_k     0.12; C_l     0.57; C_m     0.80; C_n    -0.19; C_o     0.66; C_p     0.02; C_q     0.59; C_r     0.19; C_s     0.89; C_t     0.94; 
@             N_a     0.14; N_b     0.42; O_a    -0.58; O_b    -0.74; H_a    -0.61; H_b    -0.54; H_c    -0.45; H_d    -0.53; H_e    -0.55; H_f    -0.56; 
@    MULPOP    dipole moment & components:      7.4101;       -5.6212      4.8282      0.0000
   6  Level shift: doubly occupied orbital energies shifted by -1.25D-02
 -----------------------------------------------------------------------------
   7  Screening settings (-IFTHRS, JTDIIS, DIFDEN, times)  -14    7    F  1.10D+01  1.11D+01
@  7    -1028.66109541        2.93582D-02   -1.28D-03    7
      Virial theorem: -V/T =      2.002082
@    MULPOP   C_a     1.03; C_b     0.23; C_c     0.76; C_d     0.67; C_e     0.88; C_f     0.53; C_g     0.62; C_h     0.77; C_i     0.84; C_j     0.92; 
@             C_k     0.12; C_l     0.57; C_m     0.80; C_n    -0.19; C_o     0.67; C_p     0.01; C_q     0.61; C_r     0.17; C_s     0.90; C_t     0.93; 
@             N_a     0.13; N_b     0.41; O_a    -0.59; O_b    -0.72; H_a    -0.61; H_b    -0.54; H_c    -0.45; H_d    -0.53; H_e    -0.55; H_f    -0.56; 
@    MULPOP    dipole moment & components:      7.1652;       -5.5480      4.5344      0.0000
 -----------------------------------------------------------------------------
   8  Screening settings (-IFTHRS, JTDIIS, DIFDEN, times)  -14    8    T  1.09D+01  1.10D+01
@  8    -1028.66136976        1.29807D-02   -2.74D-04    8
      Virial theorem: -V/T =      2.002081
@    MULPOP   C_a     1.03; C_b     0.23; C_c     0.77; C_d     0.68; C_e     0.88; C_f     0.53; C_g     0.62; C_h     0.77; C_i     0.84; C_j     0.93; 
@             C_k     0.12; C_l     0.58; C_m     0.80; C_n    -0.18; C_o     0.68; C_p    -0.00; C_q     0.62; C_r     0.17; C_s     0.91; C_t     0.92; 
@             N_a     0.13; N_b     0.40; O_a    -0.58; O_b    -0.72; H_a    -0.61; H_b    -0.54; H_c    -0.45; H_d    -0.53; H_e    -0.55; H_f    -0.56; 
@    MULPOP    dipole moment & components:      6.9663;       -5.4993      4.2763      0.0000
 -----------------------------------------------------------------------------
   9  Screening settings (-IFTHRS, JTDIIS, DIFDEN, times)  -14    9    T  1.08D+01  1.09D+01
@  9    -1028.66141351        5.23988D-03   -4.37D-05    8
      Virial theorem: -V/T =      2.002073
@    MULPOP   C_a     1.03; C_b     0.23; C_c     0.77; C_d     0.68; C_e     0.87; C_f     0.54; C_g     0.62; C_h     0.77; C_i     0.83; C_j     0.93; 
@             C_k     0.12; C_l     0.58; C_m     0.80; C_n    -0.18; C_o     0.68; C_p    -0.00; C_q     0.62; C_r     0.17; C_s     0.91; C_t     0.92; 
@             N_a     0.13; N_b     0.40; O_a    -0.58; O_b    -0.72; H_a    -0.61; H_b    -0.54; H_c    -0.45; H_d    -0.53; H_e    -0.55; H_f    -0.56; 
@    MULPOP    dipole moment & components:      6.8664;       -5.4416      4.1877      0.0000
 -----------------------------------------------------------------------------
  10  Screening settings (-IFTHRS, JTDIIS, DIFDEN, times)  -14   10    T  1.09D+01  1.10D+01
@ 10    -1028.66142484        3.13368D-03   -1.13D-05    8
      Virial theorem: -V/T =      2.002072
@    MULPOP   C_a     1.03; C_b     0.23; C_c     0.76; C_d     0.68; C_e     0.87; C_f     0.54; C_g     0.62; C_h     0.78; C_i     0.83; C_j     0.93; 
@             C_k     0.11; C_l     0.58; C_m     0.80; C_n    -0.18; C_o     0.68; C_p    -0.00; C_q     0.62; C_r     0.17; C_s     0.91; C_t     0.93; 
@             N_a     0.13; N_b     0.40; O_a    -0.58; O_b    -0.72; H_a    -0.61; H_b    -0.54; H_c    -0.45; H_d    -0.53; H_e    -0.55; H_f    -0.56; 
@    MULPOP    dipole moment & components:      6.8036;       -5.4017      4.1365      0.0000
 -----------------------------------------------------------------------------
  11  Screening settings (-IFTHRS, JTDIIS, DIFDEN, times)  -14   11    T  1.06D+01  1.08D+01
@ 11    -1028.66142987        1.83264D-03   -5.03D-06    8
      Virial theorem: -V/T =      2.002073
@    MULPOP   C_a     1.03; C_b     0.23; C_c     0.76; C_d     0.68; C_e     0.87; C_f     0.54; C_g     0.61; C_h     0.78; C_i     0.83; C_j     0.93; 
@             C_k     0.11; C_l     0.59; C_m     0.80; C_n    -0.18; C_o     0.68; C_p    -0.00; C_q     0.62; C_r     0.17; C_s     0.91; C_t     0.93; 
@             N_a     0.13; N_b     0.40; O_a    -0.58; O_b    -0.72; H_a    -0.61; H_b    -0.54; H_c    -0.45; H_d    -0.53; H_e    -0.55; H_f    -0.56; 
@    MULPOP    dipole moment & components:      6.7469;       -5.3653      4.0907      0.0000
 -----------------------------------------------------------------------------
  12  Screening settings (-IFTHRS, JTDIIS, DIFDEN, times)  -14   12    T  1.08D+01  1.09D+01
@ 12    -1028.66143171        6.50581D-04   -1.84D-06    8
      Virial theorem: -V/T =      2.002072
@    MULPOP   C_a     1.03; C_b     0.23; C_c     0.76; C_d     0.69; C_e     0.87; C_f     0.54; C_g     0.61; C_h     0.78; C_i     0.83; C_j     0.94; 
@             C_k     0.11; C_l     0.59; C_m     0.80; C_n    -0.18; C_o     0.68; C_p    -0.00; C_q     0.62; C_r     0.17; C_s     0.91; C_t     0.93; 
@             N_a     0.13; N_b     0.40; O_a    -0.58; O_b    -0.72; H_a    -0.61; H_b    -0.54; H_c    -0.45; H_d    -0.53; H_e    -0.55; H_f    -0.56; 
@    MULPOP    dipole moment & components:      6.7011;       -5.3361      4.0535      0.0000
 -----------------------------------------------------------------------------
  13  Screening settings (-IFTHRS, JTDIIS, DIFDEN, times)  -14   13    T  1.06D+01  1.07D+01
@ 13    -1028.66143192        2.86541D-04   -2.08D-07    8
      Virial theorem: -V/T =      2.002072
@    MULPOP   C_a     1.03; C_b     0.23; C_c     0.76; C_d     0.69; C_e     0.87; C_f     0.54; C_g     0.61; C_h     0.78; C_i     0.83; C_j     0.94; 
@             C_k     0.11; C_l     0.59; C_m     0.80; C_n    -0.18; C_o     0.68; C_p    -0.00; C_q     0.62; C_r     0.17; C_s     0.91; C_t     0.93; 
@             N_a     0.13; N_b     0.40; O_a    -0.58; O_b    -0.72; H_a    -0.61; H_b    -0.54; H_c    -0.45; H_d    -0.53; H_e    -0.55; H_f    -0.56; 
@    MULPOP    dipole moment & components:      6.6856;       -5.3262      4.0410      0.0000
 -----------------------------------------------------------------------------
  14  Screening settings (-IFTHRS, JTDIIS, DIFDEN, times)  -14   14    T  1.06D+01  1.07D+01
@ 14    -1028.66143193        1.31926D-04   -1.93D-08    8
      Virial theorem: -V/T =      2.002072
@    MULPOP   C_a     1.03; C_b     0.23; C_c     0.76; C_d     0.69; C_e     0.87; C_f     0.54; C_g     0.61; C_h     0.78; C_i     0.83; C_j     0.94; 
@             C_k     0.11; C_l     0.59; C_m     0.80; C_n    -0.18; C_o     0.68; C_p    -0.00; C_q     0.62; C_r     0.17; C_s     0.91; C_t     0.93; 
@             N_a     0.13; N_b     0.40; O_a    -0.58; O_b    -0.72; H_a    -0.61; H_b    -0.54; H_c    -0.45; H_d    -0.53; H_e    -0.55; H_f    -0.56; 
@    MULPOP    dipole moment & components:      6.6827;       -5.3242      4.0387      0.0000
 -----------------------------------------------------------------------------
  15  Screening settings (-IFTHRS, JTDIIS, DIFDEN, times)  -14   15    T  1.05D+01  1.05D+01
@ 15    -1028.66143194        5.77061D-05   -4.33D-09    8
      Virial theorem: -V/T =      2.002072
@    MULPOP   C_a     1.03; C_b     0.23; C_c     0.76; C_d     0.69; C_e     0.87; C_f     0.54; C_g     0.61; C_h     0.78; C_i     0.83; C_j     0.94; 
@             C_k     0.11; C_l     0.59; C_m     0.80; C_n    -0.18; C_o     0.68; C_p    -0.00; C_q     0.62; C_r     0.17; C_s     0.91; C_t     0.93; 
@             N_a     0.13; N_b     0.40; O_a    -0.58; O_b    -0.72; H_a    -0.61; H_b    -0.54; H_c    -0.45; H_d    -0.53; H_e    -0.55; H_f    -0.56; 
@    MULPOP    dipole moment & components:      6.6813;       -5.3232      4.0377      0.0000
 -----------------------------------------------------------------------------
  16  Screening settings (-IFTHRS, JTDIIS, DIFDEN, times)  -14   16    T  1.03D+01  1.04D+01
@ 16    -1028.66143194        2.52640D-05   -5.76D-10    8
      Virial theorem: -V/T =      2.002072
@    MULPOP   C_a     1.03; C_b     0.23; C_c     0.76; C_d     0.69; C_e     0.87; C_f     0.54; C_g     0.61; C_h     0.78; C_i     0.83; C_j     0.94; 
@             C_k     0.11; C_l     0.59; C_m     0.80; C_n    -0.18; C_o     0.68; C_p    -0.00; C_q     0.62; C_r     0.17; C_s     0.91; C_t     0.93; 
@             N_a     0.13; N_b     0.40; O_a    -0.58; O_b    -0.72; H_a    -0.61; H_b    -0.54; H_c    -0.45; H_d    -0.53; H_e    -0.55; H_f    -0.56; 
@    MULPOP    dipole moment & components:      6.6810;       -5.3230      4.0375      0.0000
 -----------------------------------------------------------------------------
  17  Screening settings (-IFTHRS, JTDIIS, DIFDEN, times)  -14   17    T  1.03D+01  1.04D+01
@ 17    -1028.66143194        1.65968D-05   -1.75D-10    8
      Virial theorem: -V/T =      2.002072
@    MULPOP   C_a     1.03; C_b     0.23; C_c     0.76; C_d     0.69; C_e     0.87; C_f     0.54; C_g     0.61; C_h     0.78; C_i     0.83; C_j     0.94; 
@             C_k     0.11; C_l     0.59; C_m     0.80; C_n    -0.18; C_o     0.68; C_p    -0.00; C_q     0.62; C_r     0.17; C_s     0.91; C_t     0.93; 
@             N_a     0.13; N_b     0.40; O_a    -0.58; O_b    -0.72; H_a    -0.61; H_b    -0.54; H_c    -0.45; H_d    -0.53; H_e    -0.55; H_f    -0.56; 
@    MULPOP    dipole moment & components:      6.6810;       -5.3230      4.0375      0.0000
 -----------------------------------------------------------------------------
  18  Screening settings (-IFTHRS, JTDIIS, DIFDEN, times)  -14   18    T  1.03D+01  1.04D+01
@ 18    -1028.66143194        7.02570D-06   -7.96D-11    8

@ *** DIIS converged in  18 iterations !
@     Converged SCF energy, gradient:  -1028.661431940056    7.03D-06
    - total time used in SIRFCK :              0.00 seconds


 *** SCF orbital energy analysis ***

 Only the 20 lowest virtual orbital energies printed in each symmetry.

 Number of electrons :  172
 Orbital occupations :   86

 Sym       Hartree-Fock orbital energies

1 A     -20.59680169   -20.59400385   -15.84459950   -15.60134141   -11.31024306
        -11.29458363   -11.29300583   -11.28343052   -11.27526842   -11.26927582
        -11.26453193   -11.26421196   -11.26063973   -11.25973960   -11.25956440
        -11.25747374   -11.25641925   -11.25560386   -11.25312135   -11.24960812
        -11.24570533   -11.24116346   -11.23613819   -11.23364271    -1.58282224
         -1.38044057    -1.24103463    -1.14509222    -1.12958784    -1.11900091
         -1.10739772    -1.09196848    -1.07262026    -1.04969953    -1.02348762
         -0.99427373    -0.96255287    -0.93813613    -0.88753794    -0.85344860
         -0.82199588    -0.79829735    -0.78583727    -0.78028870    -0.77192844
         -0.76686462    -0.75664623    -0.75385984    -0.73525073    -0.71933963
         -0.71273756    -0.69554984    -0.68276838    -0.67311190    -0.66457962
         -0.65014176    -0.64014358    -0.62045192    -0.61666550    -0.59942619
         -0.58582260    -0.57831390    -0.56252600    -0.55586829    -0.54799293
         -0.53633297    -0.53392050    -0.52694681    -0.52505744    -0.51957162
         -0.51305081    -0.50702177    -0.49941530    -0.49772480    -0.48391855
         -0.48003783    -0.47676399    -0.46885167    -0.44843272    -0.43856062
         -0.42232411    -0.39090382    -0.35447385    -0.31380369    -0.27079078
         -0.22946809     0.00037056     0.00488650     0.00673688     0.00701398
          0.00818409     0.00940352     0.01279491     0.01359886     0.01427064
          0.01735707     0.01930125     0.02022752     0.02077202     0.02194384
          0.02421285     0.02485010     0.02491400     0.02536059     0.02558043
          0.02769108

    E(LUMO) :     0.00037056 au (symmetry 1)
  - E(HOMO) :    -0.22946809 au (symmetry 1)
  ------------------------------------------
    gap     :     0.22983865 au

 --- Writing SIRIFC interface file

 CPU and wall time for SCF :     339.005     341.442


                       .-----------------------------------.
                       | --- Final results from SIRIUS --- |
                       `-----------------------------------'


@    Spin multiplicity:           1
@    Spatial symmetry:            1 ( irrep  A   in C1  )
@    Total charge of molecule:    0

@    Final HF energy:           -1028.661431940056                 
@    Nuclear repulsion:          1425.837764718247
@    Electronic energy:         -2454.499196658302

@    Final gradient norm:           0.000007025695

 
     Date and time (Linux)  : Thu May 29 16:26:32 2025
     Host name              : xm009                                   

File label for MO orbitals:  29May25   FOCKDIIS

 (Only coefficients > 0.0100 are printed.)

 Molecular orbitals for symmetry species 1  (A  )
 ------------------------------------------------

    Orbital        77       78       79       80       81       82       83
   3 C_a :1s     0.0376  -0.0000  -0.0000   0.0000   0.0000   0.0000   0.0000
   4 C_a :1s    -0.0336   0.0000  -0.0000  -0.0000  -0.0000   0.0000   0.0000
   5 C_a :1s     0.0380  -0.0000   0.0000  -0.0000   0.0000   0.0000   0.0000
   8 C_a :2pz   -0.0000   0.2028  -0.2228   0.0146  -0.0405   0.1914   0.2299
   9 C_a :2px    0.0209  -0.0000  -0.0000  -0.0000   0.0000   0.0000   0.0000
  10 C_a :2py   -0.0140  -0.0000   0.0000   0.0000   0.0000   0.0000   0.0000
  13 C_a :2py   -0.0760   0.0000   0.0000   0.0000  -0.0000  -0.0000  -0.0000
  14 C_a :2pz    0.0000   0.4369  -0.3918  -0.0168  -0.1557   0.1357   0.0726
  15 C_a :2px    0.0728   0.0000  -0.0000   0.0000  -0.0000   0.0000  -0.0000
  16 C_a :2py   -0.0257  -0.0000  -0.0000   0.0000  -0.0000   0.0000   0.0000
  17 C_a :2pz   -0.0000  -0.0179  -0.0358  -0.0312   0.0348  -0.0033  -0.1233
  19 C_a :3d1-   0.0000   0.0081  -0.0013   0.0006   0.0101   0.0134   0.0018
  29 C_a :3d1-  -0.0000  -0.1387   0.2086   0.0197  -0.2401  -0.0225   0.0483
  31 C_a :3d1+   0.0000   0.0342  -0.0346  -0.0129   0.0625  -0.0134  -0.0212
  32 C_a :3d2+   0.0281  -0.0000   0.0000   0.0000   0.0000  -0.0000   0.0000
  35 C_b :1s     0.0174   0.0000   0.0000  -0.0000  -0.0000  -0.0000   0.0000
  36 C_b :1s    -0.0888  -0.0000   0.0000  -0.0000   0.0000  -0.0000   0.0000
  37 C_b :1s     0.0831  -0.0000   0.0000  -0.0000   0.0000  -0.0000   0.0000
  40 C_b :2pz    0.0000   0.2342  -0.1482   0.0162   0.1009   0.2407   0.1018
  44 C_b :2px   -0.0506  -0.0000   0.0000  -0.0000   0.0000  -0.0000   0.0000
  45 C_b :2py    0.0679  -0.0000   0.0000   0.0000   0.0000  -0.0000  -0.0000
  46 C_b :2pz   -0.0000   0.3977  -0.2361   0.0408   0.2800   0.3194   0.0315
  47 C_b :2px   -0.0751   0.0000   0.0000   0.0000   0.0000  -0.0000   0.0000
  48 C_b :2py   -0.0324  -0.0000   0.0000  -0.0000   0.0000  -0.0000   0.0000
  49 C_b :2pz   -0.0000   0.0395  -0.0327  -0.0091  -0.0385  -0.0798  -0.1105
  51 C_b :3d1-   0.0000  -0.0035   0.0109  -0.0004   0.0084  -0.0066  -0.0174
  56 C_b :3d1-  -0.0000  -0.0010   0.0062  -0.0004   0.0084  -0.0008  -0.0105
  60 C_b :3d2-  -0.0238   0.0000  -0.0000   0.0000   0.0000   0.0000   0.0000
  61 C_b :3d1-  -0.0000   0.2503  -0.1194  -0.0412  -0.4481  -0.1403  -0.1760
  63 C_b :3d1+   0.0000  -0.0247   0.0152   0.0117   0.1041   0.0349   0.0475
  64 C_b :3d2+   0.0308   0.0000  -0.0000  -0.0000  -0.0000   0.0000  -0.0000
  68 C_c :1s     0.0828  -0.0000  -0.0000   0.0000  -0.0000   0.0000  -0.0000
  72 C_c :2pz    0.0000   0.2210   0.0227   0.0102   0.2432   0.1028  -0.2023
  74 C_c :2py    0.0153  -0.0000  -0.0000   0.0000   0.0000   0.0000   0.0000
  76 C_c :2px   -0.0557  -0.0000   0.0000   0.0000   0.0000  -0.0000   0.0000
  78 C_c :2pz    0.0000   0.5384  -0.0503   0.0421   0.2842   0.1063  -0.0364
  80 C_c :2py    0.0151  -0.0000   0.0000  -0.0000   0.0000  -0.0000   0.0000
  81 C_c :2pz    0.0000   0.0209   0.0092   0.0025  -0.0427  -0.0160   0.0844
  83 C_c :3d1-   0.0000   0.0016   0.0097  -0.0003   0.0078  -0.0091  -0.0146
  92 C_c :3d2-  -0.0443  -0.0000   0.0000  -0.0000   0.0000  -0.0000  -0.0000
  93 C_c :3d1-  -0.0000   0.2419  -0.0245   0.0350  -0.1043   0.1596   0.0541
  95 C_c :3d1+   0.0000  -0.0771   0.0045  -0.0027   0.0042  -0.0453  -0.0047
 100 C_d :1s     0.0421   0.0000   0.0000  -0.0000  -0.0000  -0.0000  -0.0000
 101 C_d :1s    -0.0375   0.0000   0.0000   0.0000  -0.0000  -0.0000  -0.0000
 104 C_d :2pz    0.0000   0.1676   0.1340   0.0021   0.2247  -0.0597  -0.2405
 108 C_d :2px    0.1777   0.0000  -0.0000  -0.0000  -0.0000   0.0000  -0.0000
 110 C_d :2pz   -0.0000   0.4056   0.3256  -0.0221   0.3154  -0.1152  -0.0014
 111 C_d :2px    0.0274   0.0000  -0.0000   0.0000  -0.0000   0.0000  -0.0000
 112 C_d :2py    0.0188   0.0000  -0.0000   0.0000  -0.0000   0.0000  -0.0000
 113 C_d :2pz    0.0000   0.0107  -0.0191  -0.0205  -0.0014  -0.0181   0.0563
 115 C_d :3d1-  -0.0000  -0.0086   0.0053  -0.0007  -0.0099  -0.0118   0.0094
 124 C_d :3d2-  -0.0188  -0.0000   0.0000   0.0000   0.0000  -0.0000   0.0000
 125 C_d :3d1-  -0.0000   0.6524  -0.0823  -0.0025  -0.1563  -0.0158  -0.1582
 127 C_d :3d1+   0.0000  -0.1642   0.0354   0.0064   0.0680   0.0160   0.0321
 128 C_d :3d2+  -0.0138  -0.0000  -0.0000   0.0000  -0.0000   0.0000  -0.0000
 131 C_e :1s    -0.0118   0.0000   0.0000  -0.0000  -0.0000  -0.0000  -0.0000
 132 C_e :1s    -0.0199  -0.0000   0.0000   0.0000   0.0000  -0.0000  -0.0000
 133 C_e :1s    -0.0301   0.0000   0.0000  -0.0000  -0.0000   0.0000  -0.0000
 136 C_e :2pz    0.0000   0.0535   0.2420  -0.0105   0.0611  -0.2459  -0.0290
 140 C_e :2px    0.0212   0.0000  -0.0000   0.0000  -0.0000   0.0000   0.0000
 141 C_e :2py    0.0166  -0.0000  -0.0000   0.0000  -0.0000   0.0000   0.0000
 142 C_e :2pz    0.0000   0.1648   0.4661  -0.0357   0.1908  -0.2002  -0.0516
 143 C_e :2px   -0.0264   0.0000  -0.0000   0.0000  -0.0000   0.0000   0.0000
 144 C_e :2py   -0.0427   0.0000  -0.0000   0.0000  -0.0000   0.0000  -0.0000
 145 C_e :2pz   -0.0000  -0.0246   0.0363   0.0324   0.0448   0.0577   0.0395
 147 C_e :3d1-  -0.0000  -0.0057   0.0075  -0.0007  -0.0094  -0.0088   0.0133
 156 C_e :3d2-   0.0278   0.0000   0.0000  -0.0000   0.0000   0.0000   0.0000
 157 C_e :3d1-  -0.0000   0.6125   0.1722   0.0130   0.1253   0.0531   0.0172
 159 C_e :3d1+   0.0000  -0.1748  -0.0606  -0.0041  -0.0243   0.0074  -0.0107
 160 C_e :3d2+  -0.0113   0.0000  -0.0000   0.0000  -0.0000   0.0000  -0.0000
 165 C_f :1s     0.0110   0.0000  -0.0000   0.0000  -0.0000   0.0000  -0.0000
 168 C_f :2pz   -0.0000  -0.0358   0.2433  -0.0155  -0.0806  -0.2180   0.1405
 172 C_f :2px   -0.0724   0.0000  -0.0000   0.0000  -0.0000   0.0000  -0.0000
 173 C_f :2py   -0.0261   0.0000   0.0000  -0.0000  -0.0000   0.0000   0.0000
 174 C_f :2pz   -0.0000  -0.0238   0.5139  -0.0060  -0.1968  -0.1077   0.0970
 175 C_f :2px    0.0468   0.0000  -0.0000  -0.0000  -0.0000   0.0000  -0.0000
 176 C_f :2py   -0.0312  -0.0000   0.0000  -0.0000  -0.0000  -0.0000  -0.0000
 177 C_f :2pz   -0.0000  -0.0373   0.0396   0.0149   0.0331   0.0792  -0.0029
 179 C_f :3d1-  -0.0000  -0.0065  -0.0069   0.0001  -0.0093   0.0120   0.0081
 188 C_f :3d2-   0.0266   0.0000  -0.0000   0.0000  -0.0000   0.0000  -0.0000
 189 C_f :3d1-  -0.0000   0.7678   0.3516  -0.0223  -0.0312  -0.1250  -0.1432
 190 C_f :3d0   -0.0114   0.0000   0.0000  -0.0000   0.0000  -0.0000   0.0000
 191 C_f :3d1+   0.0000  -0.1970  -0.0650  -0.0007   0.0036   0.0123   0.0399
 196 C_g :1s    -0.0168   0.0000   0.0000  -0.0000   0.0000  -0.0000   0.0000
 197 C_g :1s     0.0299  -0.0000   0.0000  -0.0000   0.0000   0.0000   0.0000
 200 C_g :2pz   -0.0000  -0.1575   0.1556  -0.0157  -0.2390   0.0029   0.2350
 204 C_g :2px    0.0763  -0.0000  -0.0000  -0.0000   0.0000   0.0000  -0.0000
 205 C_g :2py    0.0201  -0.0000   0.0000   0.0000   0.0000  -0.0000   0.0000
 206 C_g :2pz    0.0000  -0.1650   0.3449  -0.0424  -0.4347  -0.0982   0.1145
 207 C_g :2px    0.0191   0.0000  -0.0000   0.0000  -0.0000   0.0000   0.0000
 209 C_g :2pz   -0.0000   0.0410  -0.0663  -0.0449  -0.0309  -0.0840  -0.1697
 211 C_g :3d1-   0.0000  -0.0086  -0.0039  -0.0001  -0.0090   0.0130   0.0016
 220 C_g :3d2-   0.0260   0.0000  -0.0000   0.0000  -0.0000   0.0000  -0.0000
 221 C_g :3d1-   0.0000   0.6520   0.5658  -0.0087  -0.0236  -0.0968   0.0550
 223 C_g :3d1+   0.0000  -0.1487  -0.1505   0.0021   0.0176   0.0132  -0.0132
 224 C_g :3d2+   0.0114  -0.0000  -0.0000   0.0000   0.0000  -0.0000   0.0000
 228 C_h :1s    -0.0320  -0.0000   0.0000   0.0000   0.0000  -0.0000   0.0000
 229 C_h :1s    -0.0290  -0.0000   0.0000   0.0000   0.0000  -0.0000   0.0000
 232 C_h :2pz   -0.0000  -0.2180   0.0499  -0.0104  -0.2429   0.1541   0.1089
 235 C_h :2pz    0.0000   0.0121   0.0037   0.0000   0.0050  -0.0101   0.0097
 236 C_h :2px   -0.0748  -0.0000   0.0000  -0.0000   0.0000  -0.0000   0.0000
 238 C_h :2pz   -0.0000  -0.4352   0.0445  -0.0205  -0.3448   0.2051   0.0175
 239 C_h :2px   -0.0542  -0.0000   0.0000  -0.0000   0.0000  -0.0000   0.0000
 241 C_h :2pz    0.0000   0.0287  -0.0102   0.0018  -0.0569  -0.0676  -0.0095
 243 C_h :3d1-   0.0000  -0.0001  -0.0103   0.0008   0.0081   0.0068  -0.0172
 248 C_h :3d1-  -0.0000  -0.0005  -0.0065   0.0003   0.0032   0.0073  -0.0107
 252 C_h :3d2-   0.0260   0.0000  -0.0000   0.0000  -0.0000   0.0000   0.0000
 253 C_h :3d1-  -0.0000   0.5507   0.6361  -0.0419  -0.3506  -0.1130  -0.0470
 255 C_h :3d1+   0.0000  -0.1417  -0.1475   0.0118   0.0565   0.0392   0.0253
 260 C_i :1s     0.0375  -0.0000  -0.0000   0.0000  -0.0000   0.0000   0.0000
 261 C_i :1s     0.0322  -0.0000  -0.0000   0.0000   0.0000   0.0000   0.0000
 264 C_i :2pz    0.0000  -0.2696  -0.1198   0.0017  -0.1136   0.2505  -0.1921
 267 C_i :2pz   -0.0000   0.0109  -0.0004   0.0004   0.0084  -0.0035  -0.0074
 268 C_i :2px   -0.1221  -0.0000   0.0000  -0.0000   0.0000  -0.0000  -0.0000
 270 C_i :2pz    0.0000  -0.3685  -0.1791   0.0061  -0.2887   0.3126  -0.0447
 271 C_i :2px    0.0138  -0.0000   0.0000  -0.0000  -0.0000  -0.0000  -0.0000
 272 C_i :2py   -0.0204  -0.0000  -0.0000   0.0000  -0.0000   0.0000   0.0000
 273 C_i :2pz    0.0000  -0.0465   0.0671   0.0326   0.0151   0.0642   0.2095
 275 C_i :3d1-   0.0000  -0.0061  -0.0103   0.0007   0.0074   0.0036  -0.0148
 284 C_i :3d2-  -0.0227  -0.0000   0.0000  -0.0000   0.0000  -0.0000  -0.0000
 285 C_i :3d1-   0.0000   0.3755   0.6345  -0.0322  -0.3561   0.0090   0.0516
 287 C_i :3d1+  -0.0000  -0.0664  -0.1365   0.0096   0.0887   0.0002  -0.0114
 292 C_j :1s     0.0574  -0.0000   0.0000  -0.0000   0.0000   0.0000   0.0000
 293 C_j :1s    -0.0424   0.0000  -0.0000   0.0000  -0.0000   0.0000   0.0000
 296 C_j :2pz    0.0000  -0.2681  -0.2058   0.0095   0.0257   0.1635  -0.2442
 299 C_j :2pz   -0.0000   0.0141   0.0125  -0.0009  -0.0099   0.0055  -0.0015
 300 C_j :2px    0.0614  -0.0000   0.0000  -0.0000   0.0000  -0.0000   0.0000
 302 C_j :2pz    0.0000  -0.3853  -0.3620   0.0158   0.0482   0.1392  -0.0009
 303 C_j :2px    0.0515   0.0000  -0.0000   0.0000  -0.0000   0.0000  -0.0000
 304 C_j :2py   -0.0401  -0.0000  -0.0000   0.0000  -0.0000   0.0000   0.0000
 305 C_j :2pz   -0.0000  -0.0135  -0.0350  -0.0088   0.0638   0.0230  -0.0071
 307 C_j :3d1-  -0.0000   0.0058  -0.0018   0.0004   0.0112  -0.0146   0.0076
 316 C_j :3d2-  -0.0402  -0.0000  -0.0000  -0.0000   0.0000  -0.0000   0.0000
 317 C_j :3d1-  -0.0000   0.1758   0.4687  -0.0347  -0.5186   0.1427  -0.0522
 319 C_j :3d1+   0.0000  -0.0546  -0.1230   0.0086   0.1228  -0.0097  -0.0070
 324 C_k :1s    -0.0166  -0.0000   0.0000   0.0000  -0.0000  -0.0000  -0.0000
 328 C_k :2pz   -0.0000  -0.2294  -0.2657   0.0171   0.2141  -0.0903  -0.0663
 331 C_k :2pz    0.0000   0.0085   0.0048  -0.0002   0.0026  -0.0101   0.0118
 334 C_k :2pz   -0.0000  -0.2825  -0.4378   0.0204   0.3133  -0.0217  -0.0337
 336 C_k :2py   -0.0269  -0.0000   0.0000  -0.0000   0.0000  -0.0000   0.0000
 337 C_k :2pz   -0.0000   0.0307  -0.0341  -0.0142  -0.0193  -0.0221  -0.1462
 339 C_k :3d1-  -0.0000  -0.0007  -0.0051   0.0005   0.0107  -0.0141   0.0119
 348 C_k :3d2-  -0.0170  -0.0000   0.0000  -0.0000   0.0000  -0.0000  -0.0000
 349 C_k :3d1-  -0.0000   0.0666   0.3425  -0.0234  -0.3644   0.1115   0.0381
 351 C_k :3d1+  -0.0000  -0.0127  -0.0669   0.0036   0.0799  -0.0326   0.0012
 357 C_l :1s     0.0398   0.0000   0.0000  -0.0000  -0.0000  -0.0000  -0.0000
 360 C_l :2pz   -0.0000  -0.1702  -0.2346   0.0166   0.2513  -0.2097   0.1106
 363 C_l :2pz    0.0000   0.0112   0.0122  -0.0008  -0.0131   0.0137  -0.0118
 364 C_l :2px   -0.0101   0.0000   0.0000   0.0000  -0.0000  -0.0000  -0.0000
 366 C_l :2pz    0.0000  -0.0210  -0.2423   0.0223   0.2775  -0.0322  -0.0461
 367 C_l :2px   -0.0321  -0.0000   0.0000  -0.0000   0.0000  -0.0000   0.0000
 369 C_l :2pz    0.0000   0.0071   0.0470   0.0054  -0.0465   0.0107   0.0148
 371 C_l :3d1-  -0.0000   0.0086   0.0089  -0.0005  -0.0051  -0.0022   0.0111
 376 C_l :3d1-  -0.0000   0.0029   0.0031  -0.0002  -0.0001  -0.0057   0.0106
 380 C_l :3d2-  -0.0102  -0.0000   0.0000  -0.0000   0.0000  -0.0000   0.0000
 381 C_l :3d1-  -0.0000  -0.0441   0.1304  -0.0145  -0.2603   0.1455  -0.0544
 383 C_l :3d1+   0.0000  -0.0027  -0.0454   0.0040   0.0824  -0.0557   0.0282
 384 C_l :3d2+   0.0197   0.0000   0.0000   0.0000   0.0000  -0.0000  -0.0000
 388 C_m :1s    -0.0120  -0.0000   0.0000   0.0000   0.0000  -0.0000   0.0000
 389 C_m :1s     0.0199   0.0000   0.0000  -0.0000   0.0000  -0.0000  -0.0000
 392 C_m :2pz   -0.0000  -0.0609  -0.1156   0.0093   0.1725  -0.2223   0.2563
 396 C_m :2px    0.0478  -0.0000  -0.0000   0.0000  -0.0000   0.0000  -0.0000
 398 C_m :2pz    0.0000  -0.0108  -0.1459   0.0118   0.2344  -0.1552   0.0302
 399 C_m :2px    0.0122  -0.0000  -0.0000  -0.0000  -0.0000   0.0000  -0.0000
 401 C_m :2pz    0.0000  -0.0133  -0.0044   0.0036   0.0231  -0.0042   0.0550
 413 C_m :3d1-   0.0000  -0.0144   0.0980  -0.0074  -0.1491   0.0800  -0.0132
 415 C_m :3d1+   0.0000  -0.0004  -0.0083   0.0009   0.0156  -0.0079  -0.0040
 416 C_m :3d2+   0.0181   0.0000  -0.0000   0.0000  -0.0000   0.0000  -0.0000
 420 C_n :1s     0.0201   0.0000  -0.0000  -0.0000  -0.0000   0.0000   0.0000
 421 C_n :1s     0.0893  -0.0000  -0.0000  -0.0000  -0.0000  -0.0000  -0.0000
 424 C_n :2pz    0.0000   0.0313   0.0122   0.0000   0.0228  -0.0675   0.1172
 427 C_n :2pz   -0.0000  -0.0106  -0.0124   0.0008   0.0131  -0.0133   0.0124
 430 C_n :2pz   -0.0000   0.0457  -0.1002   0.0094   0.2039  -0.1535   0.1114
 432 C_n :2py   -0.0175  -0.0000   0.0000  -0.0000   0.0000  -0.0000   0.0000
 433 C_n :2pz   -0.0000  -0.0036  -0.0223  -0.0008   0.0198  -0.0146  -0.0023
 435 C_n :3d1-   0.0000   0.0081   0.0120  -0.0009  -0.0156   0.0189  -0.0212
 445 C_n :3d1-  -0.0000  -0.0209   0.0154  -0.0023  -0.0448   0.0248  -0.0153
 447 C_n :3d1+   0.0000   0.0074   0.0110  -0.0003  -0.0074   0.0031  -0.0021
 451 C_o :1s     0.0730  -0.0000  -0.0000  -0.0000   0.0000   0.0000  -0.0000
 452 C_o :1s    -0.1027   0.0000   0.0000  -0.0000   0.0000  -0.0000   0.0000
 453 C_o :1s    -0.0275   0.0000  -0.0000  -0.0000   0.0000  -0.0000   0.0000
 454 C_o :2px    0.1413   0.0000  -0.0000   0.0000  -0.0000   0.0000   0.0000
 455 C_o :2py    0.0112  -0.0000  -0.0000   0.0000  -0.0000   0.0000  -0.0000
 456 C_o :2pz   -0.0000  -0.1678   0.2036  -0.0196   0.2367   0.2587   0.2649
 457 C_o :2px   -0.0927  -0.0000   0.0000   0.0000   0.0000  -0.0000  -0.0000
 458 C_o :2py   -0.0508  -0.0000  -0.0000  -0.0000   0.0000   0.0000   0.0000
 460 C_o :2px    0.3627   0.0000   0.0000   0.0000   0.0000  -0.0000   0.0000
 461 C_o :2py   -0.3633   0.0000   0.0000   0.0000  -0.0000  -0.0000  -0.0000
 462 C_o :2pz   -0.0000   0.0128   0.3550   0.1013   0.1257   0.1124  -0.0022
 463 C_o :2px   -0.0358   0.0000   0.0000   0.0000  -0.0000  -0.0000  -0.0000
 464 C_o :2py    0.0707  -0.0000   0.0000  -0.0000   0.0000  -0.0000   0.0000
 465 C_o :2pz    0.0000   0.0142  -0.0015  -0.0377  -0.0099  -0.0098   0.0033
 467 C_o :3d1-  -0.0000  -0.0097   0.0106   0.0020   0.0105   0.0093   0.0070
 471 C_o :3d2-   0.0270  -0.0000   0.0000   0.0000  -0.0000  -0.0000  -0.0000
 472 C_o :3d1-  -0.0000  -0.0078   0.0117   0.0235   0.0086   0.0083   0.0067
 476 C_o :3d2-  -0.0588  -0.0000   0.0000  -0.0000   0.0000  -0.0000   0.0000
 477 C_o :3d1-  -0.0000   0.0030   0.0816   0.0109   0.0298   0.0257  -0.0003
 478 C_o :3d0   -0.0665   0.0000   0.0000  -0.0000   0.0000  -0.0000   0.0000
 479 C_o :3d1+   0.0000   0.0134  -0.0077   0.0043  -0.0125  -0.0095  -0.0134
 480 C_o :3d2+  -0.0512   0.0000   0.0000   0.0000  -0.0000  -0.0000  -0.0000
 482 C_p :1s     0.0525  -0.0000  -0.0000   0.0000  -0.0000   0.0000  -0.0000
 483 C_p :1s     0.0750   0.0000  -0.0000   0.0000  -0.0000  -0.0000  -0.0000
 484 C_p :1s    -0.2496   0.0000   0.0000   0.0000  -0.0000   0.0000  -0.0000
 485 C_p :1s    -0.0383   0.0000  -0.0000   0.0000  -0.0000   0.0000  -0.0000
 486 C_p :2px    0.0708   0.0000  -0.0000  -0.0000   0.0000   0.0000   0.0000
 487 C_p :2py   -0.0484  -0.0000   0.0000   0.0000  -0.0000  -0.0000   0.0000
 488 C_p :2pz   -0.0000  -0.2034   0.2200  -0.0101   0.2175   0.1917   0.1456
 489 C_p :2px   -0.1488   0.0000   0.0000  -0.0000   0.0000  -0.0000   0.0000
 490 C_p :2py    0.0906  -0.0000  -0.0000  -0.0000   0.0000   0.0000   0.0000
 491 C_p :2pz   -0.0000   0.0142  -0.0131  -0.0281  -0.0065  -0.0010   0.0044
 492 C_p :2px   -0.2496   0.0000  -0.0000  -0.0000  -0.0000   0.0000  -0.0000
 493 C_p :2py    0.0606  -0.0000  -0.0000  -0.0000   0.0000  -0.0000   0.0000
 494 C_p :2pz   -0.0000  -0.2449   0.2605  -0.0555   0.1109  -0.0383  -0.0967
 495 C_p :2px    0.0568   0.0000   0.0000  -0.0000   0.0000  -0.0000   0.0000
 497 C_p :2pz   -0.0000  -0.0590   0.0590   0.0753   0.0495   0.0652   0.0464
 499 C_p :3d1-   0.0000   0.0029  -0.0062   0.0005  -0.0103  -0.0150  -0.0190
 503 C_p :3d2-  -0.0344   0.0000   0.0000   0.0000  -0.0000  -0.0000  -0.0000
 506 C_p :3d1+   0.0000  -0.0018   0.0032   0.0104   0.0026   0.0032   0.0032
 507 C_p :3d2+  -0.0105  -0.0000   0.0000   0.0000  -0.0000  -0.0000  -0.0000
 508 C_p :3d2-   0.2681   0.0000   0.0000   0.0000  -0.0000  -0.0000  -0.0000
 509 C_p :3d1-  -0.0000   0.0434   0.1748   0.0173  -0.0204  -0.0635  -0.1322
 510 C_p :3d0    0.0817  -0.0000  -0.0000   0.0000  -0.0000   0.0000  -0.0000
 511 C_p :3d1+   0.0000   0.0111  -0.0428  -0.0133  -0.0080   0.0094   0.0326
 512 C_p :3d2+   0.0490  -0.0000  -0.0000  -0.0000   0.0000   0.0000   0.0000
 515 C_q :1s    -0.1043   0.0000   0.0000   0.0000  -0.0000  -0.0000  -0.0000
 516 C_q :1s     0.1309  -0.0000  -0.0000  -0.0000   0.0000  -0.0000   0.0000
 517 C_q :1s    -0.1981   0.0000  -0.0000   0.0000  -0.0000  -0.0000  -0.0000
 518 C_q :2px   -0.0584  -0.0000   0.0000   0.0000  -0.0000  -0.0000  -0.0000
 520 C_q :2pz    0.0000  -0.2009   0.1489  -0.0168   0.0547  -0.0680  -0.1863
 521 C_q :2px   -0.0893   0.0000   0.0000   0.0000  -0.0000  -0.0000  -0.0000
 522 C_q :2py    0.1449  -0.0000  -0.0000   0.0000  -0.0000   0.0000  -0.0000
 523 C_q :2pz   -0.0000   0.0085  -0.0081   0.0124  -0.0105  -0.0091  -0.0086
 524 C_q :2px    0.1692  -0.0000   0.0000   0.0000   0.0000  -0.0000   0.0000
 525 C_q :2py    0.1387   0.0000  -0.0000   0.0000   0.0000   0.0000   0.0000
 526 C_q :2pz   -0.0000  -0.0704   0.1800  -0.0425  -0.1697  -0.2314  -0.1444
 527 C_q :2px    0.0518  -0.0000  -0.0000  -0.0000   0.0000   0.0000  -0.0000
 528 C_q :2py    0.0221   0.0000  -0.0000   0.0000  -0.0000   0.0000  -0.0000
 529 C_q :2pz   -0.0000  -0.0225   0.0076   0.0223   0.0240   0.0165  -0.0276
 531 C_q :3d1-   0.0000  -0.0015  -0.0034  -0.0005  -0.0092  -0.0139  -0.0154
 535 C_q :3d2-   0.0145  -0.0000  -0.0000   0.0000  -0.0000   0.0000  -0.0000
 539 C_q :3d2+  -0.0459   0.0000   0.0000   0.0000  -0.0000  -0.0000  -0.0000
 540 C_q :3d2-  -0.0523   0.0000   0.0000  -0.0000   0.0000   0.0000   0.0000
 541 C_q :3d1-  -0.0000  -0.1668   0.3435   0.0391   0.1372   0.0527  -0.0101
 542 C_q :3d0   -0.0833   0.0000   0.0000   0.0000  -0.0000  -0.0000  -0.0000
 543 C_q :3d1+   0.0000   0.0831  -0.1429  -0.0136  -0.0766  -0.0393  -0.0044
 544 C_q :3d2+  -0.0586   0.0000   0.0000   0.0000  -0.0000  -0.0000  -0.0000
 547 C_r :1s    -0.1306   0.0000   0.0000  -0.0000   0.0000  -0.0000   0.0000
 548 C_r :1s    -0.0281   0.0000  -0.0000   0.0000  -0.0000   0.0000   0.0000
 549 C_r :1s    -0.0282  -0.0000  -0.0000   0.0000  -0.0000   0.0000  -0.0000
 550 C_r :2px    0.0225  -0.0000   0.0000  -0.0000   0.0000  -0.0000   0.0000
 552 C_r :2pz    0.0000  -0.1385   0.0379  -0.0136  -0.0853  -0.1902  -0.2340
 553 C_r :2px    0.0439   0.0000  -0.0000   0.0000  -0.0000   0.0000   0.0000
 554 C_r :2py    0.0689  -0.0000  -0.0000   0.0000  -0.0000  -0.0000  -0.0000
 556 C_r :2px   -0.0564  -0.0000  -0.0000   0.0000   0.0000  -0.0000   0.0000
 557 C_r :2py   -0.1180  -0.0000   0.0000   0.0000   0.0000  -0.0000   0.0000
 558 C_r :2pz    0.0000  -0.1397   0.1934  -0.0699  -0.1811  -0.1502  -0.0321
 559 C_r :2px   -0.0129  -0.0000   0.0000   0.0000  -0.0000   0.0000  -0.0000
 560 C_r :2py   -0.0243  -0.0000   0.0000   0.0000   0.0000  -0.0000  -0.0000
 561 C_r :2pz    0.0000   0.0895  -0.0959  -0.1074  -0.0821  -0.1274  -0.0949
 563 C_r :3d1-  -0.0000   0.0095  -0.0111   0.0005  -0.0092  -0.0023   0.0084
 567 C_r :3d2-  -0.0349   0.0000   0.0000   0.0000  -0.0000   0.0000   0.0000
 571 C_r :3d2+  -0.0330   0.0000  -0.0000   0.0000  -0.0000   0.0000  -0.0000
 572 C_r :3d2-   0.1260   0.0000   0.0000   0.0000  -0.0000  -0.0000  -0.0000
 573 C_r :3d1-  -0.0000  -0.0466   0.3046  -0.0628  -0.1762  -0.2750  -0.2757
 575 C_r :3d1+   0.0000   0.0048  -0.1046   0.0169   0.0320   0.0571   0.0607
 576 C_r :3d2+  -0.0986  -0.0000  -0.0000  -0.0000   0.0000   0.0000   0.0000
 579 C_s :1s    -0.0597   0.0000   0.0000  -0.0000   0.0000   0.0000   0.0000
 580 C_s :1s    -0.0789  -0.0000   0.0000  -0.0000   0.0000  -0.0000   0.0000
 581 C_s :1s    -0.1265  -0.0000   0.0000  -0.0000   0.0000  -0.0000   0.0000
 582 C_s :2px   -0.0115   0.0000  -0.0000   0.0000   0.0000   0.0000   0.0000
 583 C_s :2py    0.0120  -0.0000   0.0000  -0.0000   0.0000  -0.0000   0.0000
 584 C_s :2pz    0.0000  -0.0022  -0.1472  -0.0049  -0.2389  -0.2039  -0.0396
 585 C_s :2px   -0.0325   0.0000  -0.0000   0.0000   0.0000   0.0000   0.0000
 586 C_s :2py   -0.0202  -0.0000   0.0000   0.0000  -0.0000   0.0000  -0.0000
 588 C_s :2px   -0.1208   0.0000  -0.0000   0.0000  -0.0000   0.0000  -0.0000
 589 C_s :2py    0.0732  -0.0000   0.0000  -0.0000   0.0000  -0.0000   0.0000
 590 C_s :2pz   -0.0000  -0.1927  -0.0912  -0.0123  -0.1548   0.0176   0.1029
 591 C_s :2px   -0.0824  -0.0000   0.0000   0.0000   0.0000  -0.0000   0.0000
 592 C_s :2py   -0.0952   0.0000   0.0000   0.0000  -0.0000  -0.0000  -0.0000
 593 C_s :2pz    0.0000   0.0198   0.0186   0.0201  -0.0315  -0.0057   0.0829
 595 C_s :3d1-  -0.0000   0.0074  -0.0108   0.0006  -0.0080   0.0013   0.0123
 599 C_s :3d2-  -0.0132  -0.0000   0.0000  -0.0000   0.0000  -0.0000   0.0000
 603 C_s :3d2+  -0.0285   0.0000  -0.0000   0.0000   0.0000   0.0000   0.0000
 605 C_s :3d1-  -0.0000  -0.3197   0.5099   0.0113   0.0427  -0.0135   0.0131
[...]

       No.  Residual tot.,    conf., and orb.    Bnorm      Frequency 
      ----------------------------------------------------------------
         1    1.55874D-01  0.00D+00  1.56D-01  9.14D+01    0.00000D+00
         2    1.61284D-01  0.00D+00  1.61D-01  9.50D+01    1.69000D-02
         3    1.79832D-01  0.00D+00  1.80D-01  1.07D+02    3.38000D-02

 ** RSPCTL MICROITERATION NUMBER    7

       No.  Residual tot.,    conf., and orb.    Bnorm      Frequency 
      ----------------------------------------------------------------
         1    4.49091D-02  0.00D+00  4.49D-02  9.14D+01    0.00000D+00
         2    4.68260D-02  0.00D+00  4.68D-02  9.50D+01    1.69000D-02
         3    5.35163D-02  0.00D+00  5.35D-02  1.07D+02    3.38000D-02

 *** THE REQUESTED    3 SOLUTION VECTORS CONVERGED

 Convergence of RSP solution vectors, threshold = 1.00D-03
 ---------------------------------------------------------------
 (dimension of paired reduced space:   42)
 RSP solution vector no.    1; norm of residual   4.91D-04
 RSP solution vector no.    2; norm of residual   4.93D-04
 RSP solution vector no.    3; norm of residual   5.01D-04

 *** RSPCTL MICROITERATIONS CONVERGED

@ QRLRVE: SINGLET SOLUTION FOR SYMMETRY    1  ( A  )    LABEL   YDIPLEN     FREQUENCY   0.000000D+00

@ QRLRVE:  << XDIPLEN  ; YDIPLEN  >> (   0.00000):    -231.283328761    

@ QRLRVE:  << YDIPLEN  ; YDIPLEN  >> (   0.00000):     1697.41159691    

@ QRLRVE:  << ZDIPLEN  ; YDIPLEN  >> (   0.00000):    1.007629863703E-13

@ QRLRVE: SINGLET SOLUTION FOR SYMMETRY    1  ( A  )    LABEL   YDIPLEN     FREQUENCY   0.169000D-01

@ QRLRVE:  << XDIPLEN  ; YDIPLEN  >> (   0.01690):    -237.852331399    

@ QRLRVE:  << YDIPLEN  ; YDIPLEN  >> (   0.01690):     1739.19045600    

@ QRLRVE:  << ZDIPLEN  ; YDIPLEN  >> (   0.01690):    1.034139097291E-13

@ QRLRVE: SINGLET SOLUTION FOR SYMMETRY    1  ( A  )    LABEL   YDIPLEN     FREQUENCY   0.338000D-01

@ QRLRVE:  << XDIPLEN  ; YDIPLEN  >> (   0.03380):    -260.017799907    

@ QRLRVE:  << YDIPLEN  ; YDIPLEN  >> (   0.03380):     1879.97713933    

@ QRLRVE:  << ZDIPLEN  ; YDIPLEN  >> (   0.03380):    1.124027610022E-13


 QRLRVE -- linear response calculation for symmetry  1  ( A  )
 QRLRVE -- operator label : ZDIPLEN 
 QRLRVE -- operator spin  :   0
 QRLRVE -- frequencies :  0.000000  0.016900  0.033800



 ---  SOLVING SETS OF LINEAR EQUATIONS FOR LINEAR RESPONSE PROPERTIES ---

 Operator symmetry = 1  ( A  ); triplet =   F


 ** RSPCTL MICROITERATION NUMBER    1

       No.  Residual tot.,    conf., and orb.    Bnorm      Frequency 
      ----------------------------------------------------------------
         1    3.78300D+00  0.00D+00  3.78D+00  1.01D+01    0.00000D+00
         2    3.78563D+00  0.00D+00  3.79D+00  1.01D+01    1.69000D-02
         3    3.79359D+00  0.00D+00  3.79D+00  1.02D+01    3.38000D-02

 ** RSPCTL MICROITERATION NUMBER    2

       No.  Residual tot.,    conf., and orb.    Bnorm      Frequency 
      ----------------------------------------------------------------
         1    8.43819D-01  0.00D+00  8.44D-01  1.05D+01    0.00000D+00
         2    8.45682D-01  0.00D+00  8.46D-01  1.06D+01    1.69000D-02
         3    8.51325D-01  0.00D+00  8.51D-01  1.06D+01    3.38000D-02

 ** RSPCTL MICROITERATION NUMBER    3

       No.  Residual tot.,    conf., and orb.    Bnorm      Frequency 
      ----------------------------------------------------------------
         1    1.70976D-01  0.00D+00  1.71D-01  1.06D+01    0.00000D+00
         2    1.71786D-01  0.00D+00  1.72D-01  1.06D+01    1.69000D-02
         3    1.74250D-01  0.00D+00  1.74D-01  1.07D+01    3.38000D-02

 ** RSPCTL MICROITERATION NUMBER    4

       No.  Residual tot.,    conf., and orb.    Bnorm      Frequency 
      ----------------------------------------------------------------
         1    5.22915D-02  0.00D+00  5.23D-02  1.06D+01    0.00000D+00
         2    5.29210D-02  0.00D+00  5.29D-02  1.06D+01    1.69000D-02
         3    5.48702D-02  0.00D+00  5.49D-02  1.07D+01    3.38000D-02

 ** RSPCTL MICROITERATION NUMBER    5

       No.  Residual tot.,    conf., and orb.    Bnorm      Frequency 
      ----------------------------------------------------------------
         1    1.84671D-02  0.00D+00  1.85D-02  1.06D+01    0.00000D+00
         2    1.88579D-02  0.00D+00  1.89D-02  1.06D+01    1.69000D-02
         3    2.00806D-02  0.00D+00  2.01D-02  1.07D+01    3.38000D-02

 ** RSPCTL MICROITERATION NUMBER    6

       No.  Residual tot.,    conf., and orb.    Bnorm      Frequency 
      ----------------------------------------------------------------
         1    6.33709D-03  0.00D+00  6.34D-03  1.06D+01    0.00000D+00
         2    6.52915D-03  0.00D+00  6.53D-03  1.06D+01    1.69000D-02
         3    7.13559D-03  0.00D+00  7.14D-03  1.07D+01    3.38000D-02

 *** THE REQUESTED    3 SOLUTION VECTORS CONVERGED

 Convergence of RSP solution vectors, threshold = 1.00D-03
 ---------------------------------------------------------------
 (dimension of paired reduced space:   36)
 RSP solution vector no.    1; norm of residual   5.99D-04
 RSP solution vector no.    2; norm of residual   6.16D-04
 RSP solution vector no.    3; norm of residual   6.68D-04

 *** RSPCTL MICROITERATIONS CONVERGED

@ QRLRVE: SINGLET SOLUTION FOR SYMMETRY    1  ( A  )    LABEL   ZDIPLEN     FREQUENCY   0.000000D+00

@ QRLRVE:  << XDIPLEN  ; ZDIPLEN  >> (   0.00000):    4.335125709820E-15

@ QRLRVE:  << YDIPLEN  ; ZDIPLEN  >> (   0.00000):    7.244674737775E-14

@ QRLRVE:  << ZDIPLEN  ; ZDIPLEN  >> (   0.00000):     161.040033337    

@ QRLRVE: SINGLET SOLUTION FOR SYMMETRY    1  ( A  )    LABEL   ZDIPLEN     FREQUENCY   0.169000D-01

@ QRLRVE:  << XDIPLEN  ; ZDIPLEN  >> (   0.01690):    4.983380605987E-15

@ QRLRVE:  << YDIPLEN  ; ZDIPLEN  >> (   0.01690):    7.425695015552E-14

@ QRLRVE:  << ZDIPLEN  ; ZDIPLEN  >> (   0.01690):     161.202669549    

@ QRLRVE: SINGLET SOLUTION FOR SYMMETRY    1  ( A  )    LABEL   ZDIPLEN     FREQUENCY   0.338000D-01

@ QRLRVE:  << XDIPLEN  ; ZDIPLEN  >> (   0.03380):    6.963418985610E-15

@ QRLRVE:  << YDIPLEN  ; ZDIPLEN  >> (   0.03380):    8.037077288697E-14

@ QRLRVE:  << ZDIPLEN  ; ZDIPLEN  >> (   0.03380):     161.694128875    
 
 ======================================================================
 ---  L I N E A R   R E S P O N S E   F U N C T I O N S --- 
 ======================================================================

 The -<<A;B>>(omega_b) functions from vectors generated
 in a *QUADRA calculation of <<A;B,C>>(omega_b,omega_c)

 Note: the accuracy of off-diagonal elements will be linear
 in the convergence threshold THCLR =  1.00D-03


 Perturbation symmetry.     KSYMOP:           1
 Perturbation spin symmetry.TRPLET:           F
 Orbital variables.         KZWOPT:       76798
 Configuration variables.   KZCONF:           0
 Total number of variables. KZVAR :       76798

@ Singlet linear response function in a.u.

@ A operator, symmetry, frequency:   XDIPLEN    1 -0.000000
@ B operator, symmetry, frequency:   XDIPLEN    1  0.000000

@ Value of linear response -<<A;B>>(omega):     257.673959261339

@ Singlet linear response function in a.u.

@ A operator, symmetry, frequency:   YDIPLEN    1 -0.000000
@ B operator, symmetry, frequency:   XDIPLEN    1  0.000000

@ Value of linear response -<<A;B>>(omega):    -231.324508745582

@ Singlet linear response function in a.u.

@ A operator, symmetry, frequency:   ZDIPLEN    1 -0.000000
@ B operator, symmetry, frequency:   XDIPLEN    1  0.000000

@ Value of linear response -<<A;B>>(omega):      -0.000000000000

@ Singlet linear response function in a.u.

@ A operator, symmetry, frequency:   XDIPLEN    1 -0.016900
@ B operator, symmetry, frequency:   XDIPLEN    1  0.016900

@ Value of linear response -<<A;B>>(omega):     258.977634839282

@ Singlet linear response function in a.u.

@ A operator, symmetry, frequency:   YDIPLEN    1 -0.016900
@ B operator, symmetry, frequency:   XDIPLEN    1  0.016900

@ Value of linear response -<<A;B>>(omega):    -237.895737015035

@ Singlet linear response function in a.u.

@ A operator, symmetry, frequency:   ZDIPLEN    1 -0.016900
@ B operator, symmetry, frequency:   XDIPLEN    1  0.016900

@ Value of linear response -<<A;B>>(omega):      -0.000000000000

@ Singlet linear response function in a.u.

@ A operator, symmetry, frequency:   XDIPLEN    1 -0.000000
@ B operator, symmetry, frequency:   YDIPLEN    1  0.000000

@ Value of linear response -<<A;B>>(omega):    -231.283328760721

@ Singlet linear response function in a.u.

@ A operator, symmetry, frequency:   YDIPLEN    1 -0.000000
@ B operator, symmetry, frequency:   YDIPLEN    1  0.000000

@ Value of linear response -<<A;B>>(omega):    1697.411596905729

@ Singlet linear response function in a.u.

@ A operator, symmetry, frequency:   ZDIPLEN    1 -0.000000
@ B operator, symmetry, frequency:   YDIPLEN    1  0.000000

@ Value of linear response -<<A;B>>(omega):       0.000000000000

@ Singlet linear response function in a.u.

@ A operator, symmetry, frequency:   XDIPLEN    1 -0.016900
@ B operator, symmetry, frequency:   YDIPLEN    1  0.016900

@ Value of linear response -<<A;B>>(omega):    -237.852331398546

@ Singlet linear response function in a.u.

@ A operator, symmetry, frequency:   YDIPLEN    1 -0.016900
@ B operator, symmetry, frequency:   YDIPLEN    1  0.016900

@ Value of linear response -<<A;B>>(omega):    1739.190456002867

@ Singlet linear response function in a.u.

@ A operator, symmetry, frequency:   ZDIPLEN    1 -0.016900
@ B operator, symmetry, frequency:   YDIPLEN    1  0.016900

@ Value of linear response -<<A;B>>(omega):       0.000000000000

@ Singlet linear response function in a.u.

@ A operator, symmetry, frequency:   XDIPLEN    1 -0.000000
@ B operator, symmetry, frequency:   ZDIPLEN    1  0.000000

@ Value of linear response -<<A;B>>(omega):       0.000000000000

@ Singlet linear response function in a.u.

@ A operator, symmetry, frequency:   YDIPLEN    1 -0.000000
@ B operator, symmetry, frequency:   ZDIPLEN    1  0.000000

@ Value of linear response -<<A;B>>(omega):       0.000000000000

@ Singlet linear response function in a.u.

@ A operator, symmetry, frequency:   ZDIPLEN    1 -0.000000
@ B operator, symmetry, frequency:   ZDIPLEN    1  0.000000

@ Value of linear response -<<A;B>>(omega):     161.040033336693

@ Singlet linear response function in a.u.

@ A operator, symmetry, frequency:   XDIPLEN    1 -0.016900
@ B operator, symmetry, frequency:   ZDIPLEN    1  0.016900

@ Value of linear response -<<A;B>>(omega):       0.000000000000

@ Singlet linear response function in a.u.

@ A operator, symmetry, frequency:   YDIPLEN    1 -0.016900
@ B operator, symmetry, frequency:   ZDIPLEN    1  0.016900

@ Value of linear response -<<A;B>>(omega):       0.000000000000

@ Singlet linear response function in a.u.

@ A operator, symmetry, frequency:   ZDIPLEN    1 -0.016900
@ B operator, symmetry, frequency:   ZDIPLEN    1  0.016900

@ Value of linear response -<<A;B>>(omega):     161.202669549191


  Results from quadratic response calculation
 --------------------------------------------

@ B-freq = 0.000000  C-freq = 0.000000     beta(X;X,X) =  -1269.70035019
@ B-freq = 0.000000  C-freq = 0.000000     beta(Y;X,X) =   5267.03176427
@ B-freq = 0.000000  C-freq = 0.000000     beta(Z;X,X) =      0.00000000
@ B-freq = 0.016900  C-freq = 0.000000     beta(X;X,X) =  -1325.17780712
@ B-freq = 0.016900  C-freq = 0.000000     beta(Y;X,X) =   5531.40600384
@ B-freq = 0.016900  C-freq = 0.000000     beta(Z;X,X) =      0.00000000
@ B-freq = 0.000000  C-freq = 0.000000     beta(X;Y,X) = beta(Y,X,X)
@ B-freq = 0.000000  C-freq = 0.000000     beta(X;Y,X) =   5267.03211465
@ B-freq = 0.000000  C-freq = 0.000000     beta(Y;Y,X) = -19779.42978452
@ B-freq = 0.000000  C-freq = 0.000000     beta(Z;Y,X) =     -0.00000000
@ B-freq = 0.016900  C-freq = 0.000000     beta(X;Y,X) =   5531.40636941
@ B-freq = 0.016900  C-freq = 0.000000     beta(Y;Y,X) = -20988.62225851
@ B-freq = 0.016900  C-freq = 0.000000     beta(Z;Y,X) =     -0.00000000
@ B-freq = 0.000000  C-freq = 0.000000     beta(X;Z,X) = beta(Z,X,X)
@ B-freq = 0.000000  C-freq = 0.000000     beta(Y;Z,X) = beta(Z,Y,X)
@ B-freq = 0.000000  C-freq = 0.000000     beta(X;Z,X) =      0.00000000
@ B-freq = 0.000000  C-freq = 0.000000     beta(Y;Z,X) =     -0.00000000
@ B-freq = 0.000000  C-freq = 0.000000     beta(Z;Z,X) =     12.18515576
@ B-freq = 0.016900  C-freq = 0.000000     beta(X;Z,X) =      0.00000000
@ B-freq = 0.016900  C-freq = 0.000000     beta(Y;Z,X) =     -0.00000000
@ B-freq = 0.016900  C-freq = 0.000000     beta(Z;Z,X) =     12.32202870
@ B-freq = 0.000000  C-freq = 0.016900     beta(X;X,X) = beta(X,X,X)
@ B-freq = 0.000000  C-freq = 0.016900     beta(Y;X,X) = beta(Y,X,X)
@ B-freq = 0.000000  C-freq = 0.016900     beta(Z;X,X) = beta(Z,X,X)
@ B-freq = 0.016900  C-freq = 0.016900     beta(X;X,X) =  -1449.63263392
@ B-freq = 0.016900  C-freq = 0.016900     beta(Y;X,X) =   6194.32158623
@ B-freq = 0.016900  C-freq = 0.016900     beta(Z;X,X) =      0.00000000
@ B-freq = 0.000000  C-freq = 0.016900     beta(X;Y,X) =   5475.77295931
@ B-freq = 0.000000  C-freq = 0.016900     beta(Y;Y,X) = -20729.09279458
@ B-freq = 0.000000  C-freq = 0.016900     beta(Z;Y,X) =     -0.00000000
@ B-freq = 0.016900  C-freq = 0.016900     beta(X;Y,X) =   6003.91179522
@ B-freq = 0.016900  C-freq = 0.016900     beta(Y;Y,X) = -23463.34928911
@ B-freq = 0.016900  C-freq = 0.016900     beta(Z;Y,X) =     -0.00000000
@ B-freq = 0.000000  C-freq = 0.016900     beta(X;Z,X) =      0.00000000
@ B-freq = 0.000000  C-freq = 0.016900     beta(Y;Z,X) =     -0.00000000
@ B-freq = 0.000000  C-freq = 0.016900     beta(Z;Z,X) =     12.29127008
@ B-freq = 0.016900  C-freq = 0.016900     beta(X;Z,X) =      0.00000000
@ B-freq = 0.016900  C-freq = 0.016900     beta(Y;Z,X) =     -0.00000000
@ B-freq = 0.016900  C-freq = 0.016900     beta(Z;Z,X) =     12.57566473
@ B-freq = 0.000000  C-freq = 0.000000     beta(X;X,Y) = beta(Y,X,X)
@ B-freq = 0.000000  C-freq = 0.000000     beta(Y;X,Y) = beta(Y,Y,X)
@ B-freq = 0.000000  C-freq = 0.000000     beta(Z;X,Y) = beta(Z,Y,X)
@ B-freq = 0.016900  C-freq = 0.000000     beta(X;X,Y) = beta(X,Y,X)
@ B-freq = 0.016900  C-freq = 0.000000     beta(Y;X,Y) = beta(Y,Y,X)
@ B-freq = 0.016900  C-freq = 0.000000     beta(Z;X,Y) = beta(Z,Y,X)
@ B-freq = 0.000000  C-freq = 0.000000     beta(X;Y,Y) = beta(Y,Y,X)
@ B-freq = 0.000000  C-freq = 0.000000     beta(X;Y,Y) = -19779.43208710
@ B-freq = 0.000000  C-freq = 0.000000     beta(Y;Y,Y) =  64525.75601380
@ B-freq = 0.000000  C-freq = 0.000000     beta(Z;Y,Y) =      0.00000000
@ B-freq = 0.016900  C-freq = 0.000000     beta(X;Y,Y) = -20729.09520007
@ B-freq = 0.016900  C-freq = 0.000000     beta(Y;Y,Y) =  68540.91565946
@ B-freq = 0.016900  C-freq = 0.000000     beta(Z;Y,Y) =      0.00000000
@ B-freq = 0.000000  C-freq = 0.000000     beta(X;Z,Y) = beta(Z,Y,X)
@ B-freq = 0.000000  C-freq = 0.000000     beta(Y;Z,Y) = beta(Z,Y,Y)
@ B-freq = 0.000000  C-freq = 0.000000     beta(X;Z,Y) =     -0.00000000
@ B-freq = 0.000000  C-freq = 0.000000     beta(Y;Z,Y) =      0.00000000
@ B-freq = 0.000000  C-freq = 0.000000     beta(Z;Z,Y) =    -41.48377678
@ B-freq = 0.016900  C-freq = 0.000000     beta(X;Z,Y) =     -0.00000000
@ B-freq = 0.016900  C-freq = 0.000000     beta(Y;Z,Y) =      0.00000000
@ B-freq = 0.016900  C-freq = 0.000000     beta(Z;Z,Y) =    -42.19119021
@ B-freq = 0.000000  C-freq = 0.016900     beta(X;X,Y) = beta(X,Y,X)
@ B-freq = 0.000000  C-freq = 0.016900     beta(Y;X,Y) = beta(Y,Y,X)
@ B-freq = 0.000000  C-freq = 0.016900     beta(Z;X,Y) = beta(Z,Y,X)
@ B-freq = 0.016900  C-freq = 0.016900     beta(X;X,Y) = beta(X,Y,X)
@ B-freq = 0.016900  C-freq = 0.016900     beta(Y;X,Y) = beta(Y,Y,X)
@ B-freq = 0.016900  C-freq = 0.016900     beta(Z;X,Y) = beta(Z,Y,X)
@ B-freq = 0.000000  C-freq = 0.016900     beta(X;Y,Y) = beta(X,Y,Y)
@ B-freq = 0.000000  C-freq = 0.016900     beta(Y;Y,Y) = beta(Y,Y,Y)
@ B-freq = 0.000000  C-freq = 0.016900     beta(Z;Y,Y) = beta(Z,Y,Y)
@ B-freq = 0.016900  C-freq = 0.016900     beta(X;Y,Y) = -22577.94873406
@ B-freq = 0.016900  C-freq = 0.016900     beta(Y;Y,Y) =  77739.35568555
@ B-freq = 0.016900  C-freq = 0.016900     beta(Z;Y,Y) =      0.00000000
@ B-freq = 0.000000  C-freq = 0.016900     beta(X;Z,Y) =     -0.00000000
@ B-freq = 0.000000  C-freq = 0.016900     beta(Y;Z,Y) =      0.00000000
@ B-freq = 0.000000  C-freq = 0.016900     beta(Z;Z,Y) =    -42.13487830
@ B-freq = 0.016900  C-freq = 0.016900     beta(X;Z,Y) =     -0.00000000
@ B-freq = 0.016900  C-freq = 0.016900     beta(Y;Z,Y) =      0.00000000
@ B-freq = 0.016900  C-freq = 0.016900     beta(Z;Z,Y) =    -43.61399829
@ B-freq = 0.000000  C-freq = 0.000000     beta(X;X,Z) = beta(Z,X,X)
@ B-freq = 0.000000  C-freq = 0.000000     beta(Y;X,Z) = beta(Z,Y,X)
@ B-freq = 0.000000  C-freq = 0.000000     beta(Z;X,Z) = beta(Z,Z,X)
@ B-freq = 0.016900  C-freq = 0.000000     beta(X;X,Z) = beta(X,Z,X)
@ B-freq = 0.016900  C-freq = 0.000000     beta(Y;X,Z) = beta(Y,Z,X)
@ B-freq = 0.016900  C-freq = 0.000000     beta(Z;X,Z) = beta(Z,Z,X)
@ B-freq = 0.000000  C-freq = 0.000000     beta(X;Y,Z) = beta(Z,Y,X)
@ B-freq = 0.000000  C-freq = 0.000000     beta(Y;Y,Z) = beta(Z,Y,Y)
@ B-freq = 0.000000  C-freq = 0.000000     beta(Z;Y,Z) = beta(Z,Z,Y)
@ B-freq = 0.016900  C-freq = 0.000000     beta(X;Y,Z) = beta(X,Z,Y)
@ B-freq = 0.016900  C-freq = 0.000000     beta(Y;Y,Z) = beta(Y,Z,Y)
@ B-freq = 0.016900  C-freq = 0.000000     beta(Z;Y,Z) = beta(Z,Z,Y)
@ B-freq = 0.000000  C-freq = 0.000000     beta(X;Z,Z) = beta(Z,Z,X)
@ B-freq = 0.000000  C-freq = 0.000000     beta(Y;Z,Z) = beta(Z,Z,Y)
@ B-freq = 0.000000  C-freq = 0.000000     beta(X;Z,Z) =     12.18513371
@ B-freq = 0.000000  C-freq = 0.000000     beta(Y;Z,Z) =    -41.48368027
@ B-freq = 0.000000  C-freq = 0.000000     beta(Z;Z,Z) =      0.00000000
@ B-freq = 0.016900  C-freq = 0.000000     beta(X;Z,Z) =     12.29124742
@ B-freq = 0.016900  C-freq = 0.000000     beta(Y;Z,Z) =    -42.13477797
@ B-freq = 0.016900  C-freq = 0.000000     beta(Z;Z,Z) =      0.00000000
@ B-freq = 0.000000  C-freq = 0.016900     beta(X;X,Z) = beta(X,Z,X)
@ B-freq = 0.000000  C-freq = 0.016900     beta(Y;X,Z) = beta(Y,Z,X)
@ B-freq = 0.000000  C-freq = 0.016900     beta(Z;X,Z) = beta(Z,Z,X)
@ B-freq = 0.016900  C-freq = 0.016900     beta(X;X,Z) = beta(X,Z,X)
@ B-freq = 0.016900  C-freq = 0.016900     beta(Y;X,Z) = beta(Y,Z,X)
@ B-freq = 0.016900  C-freq = 0.016900     beta(Z;X,Z) = beta(Z,Z,X)
@ B-freq = 0.000000  C-freq = 0.016900     beta(X;Y,Z) = beta(X,Z,Y)
@ B-freq = 0.000000  C-freq = 0.016900     beta(Y;Y,Z) = beta(Y,Z,Y)
@ B-freq = 0.000000  C-freq = 0.016900     beta(Z;Y,Z) = beta(Z,Z,Y)
@ B-freq = 0.016900  C-freq = 0.016900     beta(X;Y,Z) = beta(X,Z,Y)
@ B-freq = 0.016900  C-freq = 0.016900     beta(Y;Y,Z) = beta(Y,Z,Y)
@ B-freq = 0.016900  C-freq = 0.016900     beta(Z;Y,Z) = beta(Z,Z,Y)
@ B-freq = 0.000000  C-freq = 0.016900     beta(X;Z,Z) = beta(X,Z,Z)
@ B-freq = 0.000000  C-freq = 0.016900     beta(Y;Z,Z) = beta(Y,Z,Z)
@ B-freq = 0.000000  C-freq = 0.016900     beta(Z;Z,Z) = beta(Z,Z,Z)
@ B-freq = 0.016900  C-freq = 0.016900     beta(X;Z,Z) =     12.48279319
@ B-freq = 0.016900  C-freq = 0.016900     beta(Y;Z,Z) =    -43.45851803
@ B-freq = 0.016900  C-freq = 0.016900     beta(Z;Z,Z) =      0.00000000

  Total CPU  time used in RESPONSE: 19 minutes 27 seconds
  Total wall time used in RESPONSE: 19 minutes 34 seconds


                   .-------------------------------------------.
                   | End of Dynamic Property Section (RESPONS) |
                   `-------------------------------------------'

  Total CPU  time used in DALTON: 26 minutes 18 seconds
  Total wall time used in DALTON: 26 minutes 31 seconds

 
     Date and time (Linux)  : Thu May 29 16:46:07 2025
     Host name              : xm009                                   
