

     ************************************************************************
     *************** Dalton - An Electronic Structure Program ***************
     ************************************************************************

    This is output from DALTON release Dalton2020.0 (2020)
         ( Web site: http://daltonprogram.org )

   ----------------------------------------------------------------------------

    NOTE:
     
    Dalton is an experimental code for the evaluation of molecular
    properties using (MC)SCF, DFT, CI, and CC wave functions.
    The authors accept no responsibility for the performance of
    the code or for the correctness of the results.
     
    The code (in whole or part) is provided under a licence and
    is not to be reproduced for further distribution without
    the written permission of the authors or their representatives.
     
    See the home page "http://daltonprogram.org" for further information.
     
    If results obtained with this code are published,
    the appropriate citations would be both of:
     
       K. Aidas, C. Angeli, K. L. Bak, V. Bakken, R. Bast,
       L. Boman, O. Christiansen, R. Cimiraglia, S. Coriani,
       P. Dahle, E. K. Dalskov, U. Ekstroem,
       T. Enevoldsen, J. J. Eriksen, P. Ettenhuber, B. Fernandez,
       L. Ferrighi, H. Fliegl, L. Frediani, K. Hald, A. Halkier,
       C. Haettig, H. Heiberg, T. Helgaker, A. C. Hennum,
       H. Hettema, E. Hjertenaes, S. Hoest, I.-M. Hoeyvik,
       M. F. Iozzi, B. Jansik, H. J. Aa. Jensen, D. Jonsson,
       P. Joergensen, J. Kauczor, S. Kirpekar,
       T. Kjaergaard, W. Klopper, S. Knecht, R. Kobayashi, H. Koch,
       J. Kongsted, A. Krapp, K. Kristensen, A. Ligabue,
       O. B. Lutnaes, J. I. Melo, K. V. Mikkelsen, R. H. Myhre,
       C. Neiss, C. B. Nielsen, P. Norman, J. Olsen,
       J. M. H. Olsen, A. Osted, M. J. Packer, F. Pawlowski,
       T. B. Pedersen, P. F. Provasi, S. Reine, Z. Rinkevicius,
       T. A. Ruden, K. Ruud, V. Rybkin, P. Salek, C. C. M. Samson,
       A. Sanchez de Meras, T. Saue, S. P. A. Sauer,
       B. Schimmelpfennig, K. Sneskov, A. H. Steindal,
       K. O. Sylvester-Hvid, P. R. Taylor, A. M. Teale,
       E. I. Tellgren, D. P. Tew, A. J. Thorvaldsen, L. Thoegersen,
       O. Vahtras, M. A. Watson, D. J. D. Wilson, M. Ziolkowski
       and H. Agren,
       "The Dalton quantum chemistry program system",
       WIREs Comput. Mol. Sci. 2014, 4:269–284 (doi: 10.1002/wcms.1172)
     
    and
     
       Dalton, a molecular electronic structure program,
       Release Dalton2020.0 (2020), see http://daltonprogram.org
   ----------------------------------------------------------------------------

    Authors in alphabetical order (Major contribution(s) in parenthesis):

  Kestutis Aidas,           Vilnius University,           Lithuania   (QM/MM)
  Celestino Angeli,         University of Ferrara,        Italy       (NEVPT2)
  Keld L. Bak,              UNI-C,                        Denmark     (AOSOPPA, non-adiabatic coupling, magnetic properties)
  Vebjoern Bakken,          University of Oslo,           Norway      (DALTON; geometry optimizer, symmetry detection)
  Radovan Bast,             UiT The Arctic U. of Norway,  Norway      (DALTON installation and execution frameworks)
  Pablo Baudin,             University of Valencia,       Spain       (Cholesky excitation energies)
  Linus Boman,              NTNU,                         Norway      (Cholesky decomposition and subsystems)
  Bruno N. Cabral Tenorio,  Technical Univ. of Denmark,   Denmark     (Lanczos-based CC methods)
  Ove Christiansen,         Aarhus University,            Denmark     (CC module)
  Renzo Cimiraglia,         University of Ferrara,        Italy       (NEVPT2)
  Sonia Coriani,            Technical Univ. of Denmark,   Denmark     (CC and RESPONS modules)
  Janusz Cukras,            University of Warsaw,         Poland      (MChD in RESPONS)
  Paal Dahle,               University of Oslo,           Norway      (Parallelization)
  Erik K. Dalskov,          UNI-C,                        Denmark     (SOPPA)
  Thomas Enevoldsen,        Univ. of Southern Denmark,    Denmark     (SOPPA)
  Janus J. Eriksen,         Aarhus University,            Denmark     (Polarizable embedding, TDA)
  Rasmus Faber,             Technical Univ. of Denmark,   Denmark     (Vib.avg. NMR w. SOPPA, parallel AO-SOPPA, CVS-CC and EOMCC)
  Tobias Fahleson,          KTH Stockholm,                Sweden      (Damped cubic response)
  Berta Fernandez,          U. of Santiago de Compostela, Spain       (Doublet spin, ESR in RESPONS)
  Lara Ferrighi,            Aarhus University,            Denmark     (PCM Cubic response)
  Heike Fliegl,             University of Oslo,           Norway      (CCSD(R12))
  Luca Frediani,            UiT The Arctic U. of Norway,  Norway      (PCM)
  Emmanuel Fromager,        Univ. Strasbourg,             France      (MC-srDFT)
  Bin Gao,                  UiT The Arctic U. of Norway,  Norway      (Gen1Int library)
  Andre S. P. Gomes,        CNRS/Universite de Lille,     France      (Frozen density embedding)
  Christof Haettig,         Ruhr-University Bochum,       Germany     (CC module)
  Kasper Hald,              Aarhus University,            Denmark     (CC module)
  Asger Halkier,            Aarhus University,            Denmark     (CC module)
  Frederik Beyer Hansen,    University of Copenhagen,     Denmark     (Parallel AO-SOPPA)
  Erik D. Hedegaard,        Univ. of Southern Denmark,    Denmark     (Polarizable embedding, QM/MM, and MC-srDFT)
  Hanne Heiberg,            University of Oslo,           Norway      (Geometry analysis, selected one-electron integrals)
  Trygve Helgaker,          University of Oslo,           Norway      (DALTON; ABACUS, ERI, DFT modules, London, and much more)
  Alf Christian Hennum,     University of Oslo,           Norway      (Parity violation)
  Hinne Hettema,            University of Auckland,       New Zealand (Quadratic response in RESPONS; SIRIUS supersymmetry)
  Eirik Hjertenaes,         NTNU,                         Norway      (Cholesky decomposition)
  Pi A. B. Haase,           University of Copenhagen,     Denmark     (Triplet AO-SOPPA)
  Maria Francesca Iozzi,    University of Oslo,           Norway      (RPA)
  Christoph Jacob           TU Braunschweig               Germany     (Frozen density embedding)
  Brano Jansik              Technical Univ. of Ostrava    Czech Rep.  (DFT cubic response)
  Hans Joergen Aa. Jensen,  Univ. of Southern Denmark,    Denmark     (DALTON; SIRIUS, RESPONS, ABACUS, MC-srDFT, and much more)
  Dan Jonsson,              UiT The Arctic U. of Norway,  Norway      (Cubic response in RESPONS module)
  Poul Joergensen,          Aarhus University,            Denmark     (RESPONS, ABACUS, and CC modules)
  Maciej Kaminski,          University of Warsaw,         Poland      (CPPh in RESPONS)
  Joanna Kauczor,           Linkoeping University,        Sweden      (Complex polarization propagator (CPP) module)
  Sheela Kirpekar,          Univ. of Southern Denmark,    Denmark     (Mass-velocity & Darwin integrals)
  Erik Kjellgren,           Univ. of Southern Denmark,    Denmark     (MC-srDFT)
  Wim Klopper,              KIT Karlsruhe,                Germany     (R12 code in CC, SIRIUS, and ABACUS modules)
  Stefan Knecht,            ETH Zurich,                   Switzerland (Parallel CI and MCSCF, MC-srDFT)
  Rika Kobayashi,           Australian National Univ.,    Australia   (DIIS in CC, London in MCSCF)
  Henrik Koch,              NTNU,                         Norway      (CC module, Cholesky decomposition)
  Jacob Kongsted,           Univ. of Southern Denmark,    Denmark     (Polarizable embedding, polarizable density embedding, QM/MM)
  Andrea Ligabue,           University of Modena,         Italy       (CTOCD, AOSOPPA)
  Nanna H. List             Univ. of Southern Denmark,    Denmark     (Polarizable embedding)
  Ola B. Lutnaes,           University of Oslo,           Norway      (DFT Hessian)
  Juan I. Melo,             University of Buenos Aires,   Argentina   (LRESC, Relativistic Effects on NMR Shieldings)
  Kurt V. Mikkelsen,        University of Copenhagen,     Denmark     (MC-SCRF and QM/MM)
  Rolf H. Myhre,            NTNU,                         Norway      (Subsystems and CC3)
  Christian Neiss,          Univ. Erlangen-Nuernberg,     Germany     (CCSD(R12))
  Christian B. Nielsen,     University of Copenhagen,     Denmark     (QM/MM)
  Patrick Norman,           KTH Stockholm,                Sweden      (Cubic response and complex frequency response in RESPONS)
  Jeppe Olsen,              Aarhus University,            Denmark     (SIRIUS CI/density modules)
  Jogvan Magnus H. Olsen,   Aarhus University,            Denmark     (Polarizable embedding and polarizable density embedding)
  Anders Osted,             Copenhagen University,        Denmark     (QM/MM)
  Martin J. Packer,         University of Sheffield,      UK          (SOPPA)
  Filip Pawlowski,          Kazimierz Wielki University,  Poland      (CC3)
  Morten N. Pedersen,       Univ. of Southern Denmark,    Denmark     (Polarizable embedding)
  Thomas B. Pedersen,       University of Oslo,           Norway      (Cholesky decomposition)
  Patricio F. Provasi,      University of Northeastern,   Argentina   (Analysis of coupling constants in localized orbitals)
  Peter Reinholdt,          Univ. of Southern Denmark,    Denmark     (Polarizable embedding and polarizable density embedding)
  Zilvinas Rinkevicius,     KTH Stockholm,                Sweden      (open-shell DFT, ESR)
  Elias Rudberg,            KTH Stockholm,                Sweden      (DFT grid and basis info)
  Torgeir A. Ruden,         University of Oslo,           Norway      (Numerical derivatives in ABACUS)
  Kenneth Ruud,             UiT The Arctic U. of Norway,  Norway      (DALTON; ABACUS magnetic properties and much more)
  Pawel Salek,              KTH Stockholm,                Sweden      (DALTON; DFT code)
  Claire C. M. Samson       University of Karlsruhe       Germany     (Boys localization, r12 integrals in ERI)
  Alfredo Sanchez de Meras, University of Valencia,       Spain       (CC module, Cholesky decomposition)
  Trond Saue,               Paul Sabatier University,     France      (direct Fock matrix construction)
  Stephan P. A. Sauer,      University of Copenhagen,     Denmark     (SOPPA(CCSD), SOPPA prop., AOSOPPA, vibrational g-factors)
  Bernd Schimmelpfennig,    Forschungszentrum Karlsruhe,  Germany     (AMFI module)
  Anna K. Schnack-Petersen, University of Copenhagen,     Denmark     (RPA(D) and HRPA(D) properties in AOSOPPA)
  Kristian Sneskov,         Aarhus University,            Denmark     (Polarizable embedding, QM/MM)
  Arnfinn H. Steindal,      UiT The Arctic U. of Norway,  Norway      (parallel QM/MM, polarizable embedding)
  Casper Steinmann,         Aalborg University,           Denmark     (QFIT, polarizable embedding)
  K. O. Sylvester-Hvid,     University of Copenhagen,     Denmark     (MC-SCRF)
  Peter R. Taylor,          VLSCI/Univ. of Melbourne,     Australia   (Symmetry handling ABACUS, integral transformation)
  Andrew M. Teale,          University of Nottingham,     England     (DFT-AC, DFT-D)
  David P. Tew,             University of Bristol,        England     (CCSD(R12))
  Julien Toulouse,          Sorbonne Univ.,               France      (MC-srDFT)
  Olav Vahtras,             KTH Stockholm,                Sweden      (Triplet response, spin-orbit, ESR, TDDFT, open-shell DFT)
  Lucas Visscher,           Vrije Universiteit Amsterdam, Netherlands (Frozen density embedding)
  David J. Wilson,          La Trobe University,          Australia   (DFT Hessian and DFT magnetizabilities)
  Hans Agren,               KTH Stockholm,                Sweden      (SIRIUS module, RESPONS, MC-SCRF solvation)
 --------------------------------------------------------------------------------

     Date and time (Linux)  : Fri May 30 20:27:23 2025
     Host name              : xm052                                   

 * Work memory size             :   131072000 = 1000.00 megabytes.

 * Directories for basis set searches:
   1) /gpfs/projects/rjh/adrian/summer2025/beta_projects/raw_data/NLO/dalton/hf/n10/dipole
   2) /gpfs/projects/rjh/adrian/dalton/build/basis


Compilation information
-----------------------

 Who compiled             | ahurtado
 Host                     | milan2
 System                   | Linux-5.14.0-427.42.1.el9_4.x86_64
 CMake generator          | Unix Makefiles
 Processor                | x86_64
 64-bit integers          | OFF
 MPI                      | ON
 Fortran compiler         | /gpfs/software/openmpi/milan/gcc13.2/4.1.6/bin/mpi
                          | f90
 Fortran compiler version | GNU Fortran (GCC) 13.2.0
 C compiler               | /gpfs/software/openmpi/milan/gcc13.2/4.1.6/bin/mpi
                          | cc
 C compiler version       | gcc (GCC) 13.2.0
 C++ compiler             | /gpfs/software/openmpi/milan/gcc13.2/4.1.6/bin/mpi
                          | cxx
 C++ compiler version     | unknown
 BLAS                     | /gpfs/software/intel/oneAPI/2024_2/mkl/2024.2/lib/
                          | intel64/libmkl_gf_lp64.so;/gpfs/software/intel/one
                          | API/2024_2/mkl/2024.2/lib/intel64/libmkl_sequentia
                          | l.so;/gpfs/software/intel/oneAPI/2024_2/mkl/2024.2
                          | /lib/intel64/libmkl_core.so;/usr/lib64/libpthread.
                          | a;/usr/lib64/libm.so
 LAPACK                   | /gpfs/software/intel/oneAPI/2024_2/mkl/2024.2/lib/
                          | intel64/libmkl_lapack95_lp64.a;/gpfs/software/inte
                          | l/oneAPI/2024_2/mkl/2024.2/lib/intel64/libmkl_gf_l
                          | p64.so
 Static linking           | OFF
 Last Git revision        | 66052b3af5ea7225e31178bf9a8b031913c72190
 Git branch               | (HEAD detached at Dalton2020.0)
 Configuration time       | 2025-04-10 16:02:31.569498

 * MPI parallel run using 576 processes.


   Content of the .dal input file
 ----------------------------------

**DALTON INPUT
.RUN RESPONSE
.DIRECT
**WAVE FUNCTIONS
.HF
**PROPERTIES
**RESPONSE
*QUADRA
.DIPLEN
.FREQUENCIES
2
0.0 0.0169
**END OF DALTON INPUT


   Content of the .mol file
 ----------------------------

BASIS
d-aug-cc-pVTZ
blah
blah
Atomtype=4 Angstrom Charge=0 Nosymmetry
Charge=6 Atoms=20
C_a 0.2946710015267907 -3.266199999486508 0.0
C_b 0.6245919999195884 -1.9307299988330624 0.0
C_c -0.3385019984549477 -0.8630230000153507 0.0
C_d 0.0 0.47111999882221456 0.0
C_e -0.9552849990697163 1.5451879987596455 0.0
C_f -0.6082440013478295 2.877386001467621 0.0
C_g -1.555175001503457 3.958941001668951 0.0
C_h -1.1977470012759852 5.288136997936112 0.0
C_i -2.1338350016318213 6.3800070007917435 0.0
C_j -1.761537000073764 7.704197001813054 0.0
C_k -2.6806309981943715 8.812358000271312 0.0
C_l -2.2820919983604475 10.126833000926869 0.0
C_m -3.167824998212204 11.263664000434547 0.0
C_n -2.7016550023951784 12.551621999856467 0.0
C_o 2.3678599981867356 -10.402918002330763 0.0
C_p 2.6495470018370852 -9.079618998146143 0.0
C_q 1.6321410009891035 -8.051510001912998 0.0
C_r 1.9347320020324241 -6.715005999573447 0.0
C_s 0.9482450000874422 -5.6635319985360715 0.0
C_t 1.2670480011593794 -4.327153998582152 0.0
Charge=7 Atoms=2
N_a -3.4652040006133333 13.68741600253503 0.0
N_b 3.4325029974534025 -11.399971000972839 0.0
Charge=8 Atoms=2
O_a 3.0580200020254003 -12.578901000398153 0.0
O_b 4.605280999590125 -11.019595998311617 0.0
Charge=1 Atoms=22
H_a -0.7684819987595649 -3.547291001428025 0.0
H_b 1.6894250002637465 -1.6539350003656121 0.0
H_c -1.4038429983378047 -1.1362099994674155 0.0
H_d 1.0667820023452326 0.7405630007157517 0.0
H_e -2.022512002406718 1.2792110017605547 0.0
H_f 0.4605430005309105 3.1391810009309125 0.0
H_g -2.6244310025604696 3.7011640024320998 0.0
H_h -0.12645900206417662 5.540217002325421 0.0
H_i -3.205656998858689 6.133309998660255 0.0
H_j -0.6865369973575849 7.9413919974060825 0.0
H_k -3.7562339983421094 8.583863000819797 0.0
H_l -1.2008399997381745 10.335589002490018 0.0
H_m -4.251344997441688 11.082428002590138 0.0
H_n -1.6194549986753068 12.732716998433094 0.0
H_o -4.474556998544655 13.633253000488795 0.0
H_p -3.0387519983133924 14.600879999642967 0.0
H_q 1.3717300010190543 -10.849470001920414 0.0
H_r 3.705443998295543 -8.783211999029117 0.0
H_s 0.5784399999948003 -8.361977001387782 0.0
H_t 2.9935139985586456 -6.417049998217119 0.0
H_u 2.329441002427543 -4.041303000004711 0.0
H_v -0.11158199971909401 -5.956019001046073 0.0


       *******************************************************************
       *********** Output from DALTON general input processing ***********
       *******************************************************************

 --------------------------------------------------------------------------------
   Overall default print level:    0
   Print level for DALTON.STAT:    1

    Parallel calculation using MPI
    AO-direct calculation (in sections where implemented)
    HERMIT 1- and 2-electron integral sections will be executed
    "Old" integral transformation used (limited to max 255 basis functions)
    Wave function sections will be executed (SIRIUS module)
    Dynamic molecular response properties section will be executed (RESPONSE module)
 --------------------------------------------------------------------------------


   ****************************************************************************
   *************** Output of molecule and basis set information ***************
   ****************************************************************************


    The two title cards from your ".mol" input:
    ------------------------------------------------------------------------
 1: blah                                                                    
 2: blah                                                                    
    ------------------------------------------------------------------------

  Coordinates are entered in Angstrom and converted to atomic units.
          - Conversion factor : 1 bohr = 0.52917721 A

  Atomic type no.    1
  --------------------
  Nuclear charge:   6.00000
  Number of symmetry independent centers:   20
  Number of basis sets to read;    2
  Basis set file used for this atomic type with Z =   6 :
     "/gpfs/projects/rjh/adrian/dalton/build/basis/aug-cc-pVTZ"

  Atomic type no.    2
  --------------------
  Nuclear charge:   7.00000
  Number of symmetry independent centers:    2
  Number of basis sets to read;    2
  Basis set file used for this atomic type with Z =   7 :
     "/gpfs/projects/rjh/adrian/dalton/build/basis/aug-cc-pVTZ"

  Atomic type no.    3
  --------------------
  Nuclear charge:   8.00000
  Number of symmetry independent centers:    2
  Number of basis sets to read;    2
  Basis set file used for this atomic type with Z =   8 :
     "/gpfs/projects/rjh/adrian/dalton/build/basis/aug-cc-pVTZ"

  Atomic type no.    4
  --------------------
  Nuclear charge:   1.00000
  Number of symmetry independent centers:   22
  Number of basis sets to read;    2
  Basis set file used for this atomic type with Z =   1 :
     "/gpfs/projects/rjh/adrian/dalton/build/basis/aug-cc-pVTZ"


                         SYMGRP: Point group information
                         -------------------------------

@    Point group: C1 


                                 Isotopic Masses
                                 ---------------

                           C_a        12.000000
                           C_b        12.000000
                           C_c        12.000000
                           C_d        12.000000
                           C_e        12.000000
                           C_f        12.000000
                           C_g        12.000000
                           C_h        12.000000
                           C_i        12.000000
                           C_j        12.000000
                           C_k        12.000000
                           C_l        12.000000
                           C_m        12.000000
                           C_n        12.000000
                           C_o        12.000000
                           C_p        12.000000
                           C_q        12.000000
                           C_r        12.000000
                           C_s        12.000000
                           C_t        12.000000
                           N_a        14.003074
                           N_b        14.003074
                           O_a        15.994915
                           O_b        15.994915
                           H_a         1.007825
                           H_b         1.007825
                           H_c         1.007825
                           H_d         1.007825
                           H_e         1.007825
                           H_f         1.007825
                           H_g         1.007825
                           H_h         1.007825
                           H_i         1.007825
                           H_j         1.007825
                           H_k         1.007825
                           H_l         1.007825
                           H_m         1.007825
                           H_n         1.007825
                           H_o         1.007825
                           H_p         1.007825
                           H_q         1.007825
                           H_r         1.007825
                           H_s         1.007825
                           H_t         1.007825
                           H_u         1.007825
                           H_v         1.007825

                       Total mass:   322.168128 amu
                       Natural abundance:  78.920 %

 Center-of-mass coordinates (a.u.):    0.087622   -0.282661    0.000000
 Center-of-mass coordinates (Angs):    0.046368   -0.149578    0.000000


  Atoms and basis sets
  --------------------

  Number of atom types :    4
  Total number of atoms:   46

  Basis set used is "d-aug-cc-pVTZ" from the basis set library.

  label    atoms   charge   prim   cont     basis
  ----------------------------------------------------------------------
  C_         20    6.0000    74    62      [12s7p4d3f|6s5p4d3f]                               
  N_          2    7.0000    74    62      [12s7p4d3f|6s5p4d3f]                               
  O_          2    8.0000    74    62      [12s7p4d3f|6s5p4d3f]                               
  H_         22    1.0000    34    32      [7s4p3d|5s4p3d]                                    
  ----------------------------------------------------------------------
  total:     46  172.0000  2524  2192
  ----------------------------------------------------------------------
  Spherical harmonic basis used.

  Threshold for neglecting AO integrals:  1.00D-12

  Max    interatomic separation is   27.8552 Angstrom (   52.6387 Bohr)
  between atoms   40 and   23, "H_p   " and "O_a   ".

  Min HX interatomic separation is    1.0081 Angstrom (    1.9050 Bohr)

  Min YX interatomic separation is    1.2329 Angstrom (    2.3299 Bohr)


  Bond distances (Angstrom):
  --------------------------

                  atom 1     atom 2       distance
                  ------     ------       --------
  bond distance:  C_b        C_a          1.375619
  bond distance:  C_c        C_b          1.437897
  bond distance:  C_d        C_c          1.376416
  bond distance:  C_e        C_d          1.437425
  bond distance:  C_f        C_e          1.376659
  bond distance:  C_g        C_f          1.437512
  bond distance:  C_h        C_g          1.376414
  bond distance:  C_i        C_h          1.438208
  bond distance:  C_j        C_i          1.375531
  bond distance:  C_k        C_j          1.439706
  bond distance:  C_l        C_k          1.373564
  bond distance:  C_m        C_l          1.441148
  bond distance:  C_n        C_m          1.369726
  bond distance:  C_p        C_o          1.352948
  bond distance:  C_q        C_p          1.446417
  bond distance:  C_r        C_q          1.370330
  bond distance:  C_s        C_r          1.441789
  bond distance:  C_t        C_a          1.439146
  bond distance:  C_t        C_s          1.373878
  bond distance:  N_a        C_n          1.368589
  bond distance:  N_b        C_o          1.458622
  bond distance:  O_a        N_b          1.236978
  bond distance:  O_b        N_b          1.232921
  bond distance:  H_a        C_a          1.099685
  bond distance:  H_b        C_b          1.100220
  bond distance:  H_c        C_c          1.099810
  bond distance:  H_d        C_d          1.100283
  bond distance:  H_e        C_e          1.099871
  bond distance:  H_f        C_f          1.100383
  bond distance:  H_g        C_g          1.099890
  bond distance:  H_h        C_h          1.100546
  bond distance:  H_i        C_i          1.099846
  bond distance:  H_j        C_j          1.100857
  bond distance:  H_k        C_k          1.099605
  bond distance:  H_l        C_l          1.101220
  bond distance:  H_m        C_m          1.098573
  bond distance:  H_n        C_n          1.097248
  bond distance:  H_o        N_a          1.010805
  bond distance:  H_p        N_a          1.008106
  bond distance:  H_q        C_o          1.091643
  bond distance:  H_r        C_p          1.096711
  bond distance:  H_s        C_q          1.098488
  bond distance:  H_t        C_r          1.099908
  bond distance:  H_u        C_t          1.100177
  bond distance:  H_v        C_s          1.099446


  Bond angles (degrees):
  ----------------------

                  atom 1     atom 2     atom 3         angle
                  ------     ------     ------         -----
  bond angle:     C_b        C_a        C_t          123.618
  bond angle:     C_b        C_a        H_a          118.687
  bond angle:     C_t        C_a        H_a          117.696
  bond angle:     C_a        C_b        C_c          124.072
  bond angle:     C_a        C_b        H_b          118.448
  bond angle:     C_c        C_b        H_b          117.480
  bond angle:     C_b        C_c        C_d          123.712
  bond angle:     C_b        C_c        H_c          117.669
  bond angle:     C_d        C_c        H_c          118.619
  bond angle:     C_c        C_d        C_e          124.113
  bond angle:     C_c        C_d        H_d          118.412
  bond angle:     C_e        C_d        H_d          117.475
  bond angle:     C_d        C_e        C_f          123.749
  bond angle:     C_d        C_e        H_e          117.656
  bond angle:     C_f        C_e        H_e          118.595
  bond angle:     C_e        C_f        C_g          124.196
  bond angle:     C_e        C_f        H_f          118.365
  bond angle:     C_g        C_f        H_f          117.440
  bond angle:     C_f        C_g        C_h          123.746
  bond angle:     C_f        C_g        H_g          117.649
  bond angle:     C_h        C_g        H_g          118.605
  bond angle:     C_g        C_h        C_i          124.342
  bond angle:     C_g        C_h        H_h          118.292
  bond angle:     C_i        C_h        H_h          117.366
  bond angle:     C_h        C_i        C_j          123.689
  bond angle:     C_h        C_i        H_i          117.646
  bond angle:     C_j        C_i        H_i          118.665
  bond angle:     C_i        C_j        C_k          124.625
  bond angle:     C_i        C_j        H_j          118.146
  bond angle:     C_k        C_j        H_j          117.229
  bond angle:     C_j        C_k        C_l          123.461
  bond angle:     C_j        C_k        H_k          117.679
  bond angle:     C_l        C_k        H_k          118.860
  bond angle:     C_k        C_l        C_m          125.210
  bond angle:     C_k        C_l        H_l          117.794
  bond angle:     C_m        C_l        H_l          116.995
  bond angle:     C_l        C_m        C_n          122.179
  bond angle:     C_l        C_m        H_m          118.427
  bond angle:     C_n        C_m        H_m          119.393
  bond angle:     C_m        C_n        N_a          126.191
  bond angle:     C_m        C_n        H_n          119.397
  bond angle:     N_a        C_n        H_n          114.412
  bond angle:     C_p        C_o        N_b          121.105
  bond angle:     C_p        C_o        H_q          126.163
  bond angle:     N_b        C_o        H_q          112.732
  bond angle:     C_o        C_p        C_q          123.283
  bond angle:     C_o        C_p        H_r          117.697
  bond angle:     C_q        C_p        H_r          119.020
  bond angle:     C_p        C_q        C_r          122.543
  bond angle:     C_p        C_q        H_s          118.283
  bond angle:     C_r        C_q        H_s          119.174
  bond angle:     C_q        C_r        C_s          124.069
  bond angle:     C_q        C_r        H_t          118.474
  bond angle:     C_s        C_r        H_t          117.456
  bond angle:     C_r        C_s        C_t          123.409
  bond angle:     C_r        C_s        H_v          117.745
  bond angle:     C_t        C_s        H_v          118.846
  bond angle:     C_a        C_t        C_s          124.077
  bond angle:     C_a        C_t        H_u          117.446
  bond angle:     C_s        C_t        H_u          118.477
  bond angle:     C_n        N_a        H_o          120.840
  bond angle:     C_n        N_a        H_p          121.063
  bond angle:     H_o        N_a        H_p          118.097
  bond angle:     C_o        N_b        O_a          115.500
  bond angle:     C_o        N_b        O_b          118.908
  bond angle:     O_a        N_b        O_b          125.592




 Principal moments of inertia (u*A**2) and principal axes
 --------------------------------------------------------

   IA     123.802576         -0.260153    0.965567    0.000000
   IB   23743.393156          0.965567    0.260153    0.000000
   IC   23867.195731          0.000000    0.000000    1.000000


 Rotational constants
 --------------------

@    The molecule is planar.

               A                   B                   C

           4082.1364             21.2850             21.1746 MHz
            0.136165            0.000710            0.000706 cm-1


@  Nuclear repulsion energy : 1425.837764718247 Hartree


                     .---------------------------------------.
                     | Starting in Integral Section (HERMIT) |
                     `---------------------------------------'



 ***************************************************************************************
 ****************** Output from **INTEGRALS input processing (HERMIT) ******************
 ***************************************************************************************


 - Using defaults, no **INTEGRALS input found

 Default print level:        1

 Calculation of one-electron Hamiltonian integrals.

 Center of mass  (bohr):      0.087621939018     -0.282661092379      0.000000000000
 Operator center (bohr):      0.000000000000      0.000000000000      0.000000000000
 Gauge origin    (bohr):      0.000000000000      0.000000000000      0.000000000000
 Dipole origin   (bohr):      0.000000000000      0.000000000000      0.000000000000


     ************************************************************************
     ************************** Output from HERINT **************************
     ************************************************************************



                      Nuclear contribution to dipole moments
                      --------------------------------------

                 au               Debye          C m (/(10**-30)

      x     -0.00003395        -0.00008629        -0.00028784
      y      0.00001145         0.00002910         0.00009708
      z      0.00000000         0.00000000         0.00000000


  Time used in ONEDRV     is       8.05 seconds
  Time used in HUCKEL     is       1.71 seconds
  Time used in OVERLAP    is       0.99 seconds
  Time used in POPOVLP    is       1.91 seconds
  Time used in R2         is       1.20 seconds
  Time used in R4         is       1.41 seconds
  Time used in DIPLEN     is       1.70 seconds
  Time used in QUADRUP    is       3.34 seconds
  Time used in KINENE     is       1.59 seconds
  Time used in GABGEN     is      16.95 seconds
  Total CPU  time used in HERMIT:  38.87 seconds
  Total wall time used in HERMIT:  39.12 seconds


                        .----------------------------------.
                        | End of Integral Section (HERMIT) |
                        `----------------------------------'



                   .--------------------------------------------.
                   | Starting in Wave Function Section (SIRIUS) |
                   `--------------------------------------------'



@ Primary orbitals are deleted during canonical orthonormalization
@   because of detected numerical linear dependence or too large coefficients.
@ Eigenvalue threshold for num. lin. dep. =  1.00D-06

@ 149 MO components are deleted in symmetry    1
 Overlap eigenvalues of the deleted orbitals:
  9.90D-07  9.78D-07  9.43D-07  9.37D-07  9.34D-07
  9.17D-07  8.77D-07  8.57D-07  8.14D-07  7.36D-07
  7.01D-07  6.72D-07  6.48D-07  6.32D-07  6.27D-07
  5.59D-07  5.30D-07  5.20D-07  5.12D-07  4.97D-07
  4.87D-07  4.82D-07  4.64D-07  4.38D-07  4.32D-07
  4.18D-07  3.86D-07  3.84D-07  3.81D-07  3.69D-07
  3.49D-07  3.45D-07  3.32D-07  3.29D-07  3.17D-07
  3.06D-07  2.78D-07  2.69D-07  2.61D-07  2.48D-07
  2.34D-07  2.27D-07  2.14D-07  2.08D-07  1.92D-07
  1.88D-07  1.81D-07  1.78D-07  1.70D-07  1.60D-07
  1.56D-07  1.52D-07  1.46D-07  1.40D-07  1.34D-07
  1.29D-07  1.29D-07  1.28D-07  1.20D-07  1.18D-07
  1.11D-07  1.10D-07  1.05D-07  9.73D-08  9.53D-08
  9.10D-08  8.96D-08  8.74D-08  8.31D-08  8.30D-08
  8.10D-08  7.86D-08  7.56D-08  7.47D-08  7.34D-08
  7.18D-08  6.79D-08  6.48D-08  6.20D-08  6.04D-08
  6.01D-08  5.57D-08  5.48D-08  5.19D-08  5.12D-08
  4.92D-08  4.79D-08  4.69D-08  4.51D-08  4.43D-08
  4.29D-08  4.23D-08  4.03D-08  3.83D-08  3.51D-08
  3.27D-08  3.03D-08  2.88D-08  2.65D-08  2.42D-08
  2.21D-08  2.08D-08  2.04D-08  1.94D-08  1.86D-08
  1.75D-08  1.70D-08  1.59D-08  1.45D-08  1.33D-08
  1.29D-08  1.22D-08  1.10D-08  1.05D-08  1.04D-08
  9.29D-09  8.48D-09  8.04D-09  7.40D-09  7.24D-09
  6.92D-09  5.93D-09  5.53D-09  5.10D-09  4.57D-09
  4.33D-09  4.07D-09  3.66D-09  3.44D-09  3.14D-09
  3.00D-09  2.26D-09  2.08D-09  1.93D-09  1.80D-09
  1.57D-09  1.31D-09  1.28D-09  9.76D-10  8.22D-10
  6.54D-10  4.82D-10  4.67D-10  4.18D-10  2.78D-10
  2.38D-10  2.19D-10  1.33D-10  1.17D-10

 Max MO coeff. of last deleted MO & limit:  2.26D+02  1.00D+03

WARNING: Orbitals have been deleted because of numerical
   linear dependence although not requested in input.

 *** Output from Huckel module :

     Using EWMO model:          T
     Using EHT  model:          F
     Number of Huckel orbitals each symmetry:  142

 EWMO - Energy Weighted Maximum Overlap - is a Huckel type method,
        which normally is better than Extended Huckel Theory.
 Reference: Linderberg and Ohrn, Propagators in Quantum Chemistry (Wiley, 1973)

 Huckel EWMO eigenvalues for symmetry :  1
          -20.684753     -20.683496     -15.677080     -15.674964     -11.359368
          -11.359302     -11.359062     -11.358888     -11.358582     -11.357574
          -11.356157     -11.354494     -11.352766     -11.351191     -11.348506
          -11.347552     -11.346663     -11.345992     -11.345570     -11.345479
          -11.345369     -11.345339     -11.345215     -11.345203      -1.964077
           -1.792384      -1.787141      -1.772335      -1.742277      -1.692755
           -1.622960      -1.535967      -1.451227      -1.427490      -1.326648
           -1.219500      -1.206885      -1.173981      -1.129097      -1.108904
           -1.065198      -1.005942      -0.996580      -0.925568      -0.916328
           -0.857659      -0.852028      -0.842296      -0.815904      -0.780561
           -0.755959      -0.753965      -0.734522      -0.719460      -0.695411
           -0.674852      -0.665561      -0.647033      -0.626031      -0.625571
           -0.599084      -0.586020      -0.580790      -0.573644      -0.554516
           -0.537734      -0.531917      -0.523196      -0.514248      -0.504370
           -0.495268      -0.490991      -0.489712      -0.484424      -0.481458
           -0.480464      -0.475271      -0.475253      -0.474802      -0.447668
           -0.430487      -0.412492      -0.391551      -0.383829      -0.365176
           -0.358684      -0.335586      -0.300513      -0.276068      -0.255233
           -0.238103      -0.229143      -0.224427      -0.213845      -0.205944
           -0.200925      -0.200303      -0.196553      -0.194412      -0.190574
           -0.166681      -0.142733      -0.138957      -0.134556      -0.132032
           -0.131424      -0.130762      -0.129973      -0.129719      -0.129539
           -0.128841      -0.128513      -0.127651      -0.127530      -0.126687
           -0.126625      -0.125871      -0.125583      -0.124540      -0.124313
           -0.123705      -0.123161      -0.112026      -0.111102      -0.106874
           -0.105594      -0.101449      -0.099777      -0.096280      -0.094508
           -0.092347      -0.090534      -0.089213      -0.087866      -0.086793
           -0.085937      -0.085294      -0.084324      -0.082818      -0.081351
           -0.080075      -0.079349

 **********************************************************************
 *SIRIUS* a direct, restricted step, second order MCSCF program       *
 **********************************************************************

 
     Date and time (Linux)  : Fri May 30 20:37:27 2025
     Host name              : xm052                                   

 Title lines from ".mol" input file:
     blah                                                                    
     blah                                                                    

 Print level on unit LUPRI =   2 is   0
 Print level on unit LUW4  =   2 is   5

@    Restricted, closed shell Hartree-Fock calculation.

@    Time-dependent Hartree-Fock calculation (random phase approximation).
 Fock matrices are calculated directly and in parallel without use of integrals on disk.

 Initial molecular orbitals are obtained according to
 ".MOSTART EWMO  " input option

     Wave function specification
     ============================
@    Wave function type        --- HF ---
@    Number of closed shell electrons         172
@    Number of electrons in active shells       0
@    Total charge of the molecule               0

@    Spin multiplicity and 2 M_S                1         0
@    Total number of symmetries                 1 (point group: C1 )
@    Reference state symmetry                   1 (irrep name : A  )

     Orbital specifications
     ======================
@    Abelian symmetry species          All |    1
@                                          |  A  
                                       --- |  ---
@    Occupied SCF orbitals              86 |   86
@    Secondary orbitals               1957 | 1957
@    Total number of orbitals         2043 | 2043
@    Number of basis functions        2192 | 2192

     Optimization information
     ========================
@    Number of configurations                 1
@    Number of orbital rotations         168302
     ------------------------------------------
@    Total number of variables           168303

     Maximum number of Fock   iterations      0
     Maximum number of DIIS   iterations     60
     Maximum number of QC-SCF iterations     60
     Threshold for SCF convergence     1.00D-05

    INFORMATION: Switched to "new" integral transformation (from 1988 ;-) )
    because more than 255 basis functions.


 ***********************************************
 ***** DIIS acceleration of SCF iterations *****
 ***********************************************

 C1-DIIS algorithm; max error vectors =    8

 Iter      Total energy        Error norm    Delta(E)  DIIS dim.
 -----------------------------------------------------------------------------
   1  Screening settings (-IFTHRS, JTDIIS, DIFDEN, times)  -10    1    T  1.31D+02  1.31D+02
@  1    -1024.95743006        7.79690D+00   -1.02D+03    1
      Virial theorem: -V/T =      2.011197
@    MULPOP   C_a     0.30; C_b     0.29; C_c     0.27; C_d     0.33; C_e     0.31; C_f     0.32; C_g     0.28; C_h     0.34; C_i     0.17; C_j     0.27; 
@             C_k     0.13; C_l     0.25; C_m     0.17; C_n     0.51; C_o     0.13; C_p     0.43; C_q     0.27; C_r     0.26; C_s     0.25; C_t     0.28; 
@             N_a    -0.89; N_b    -0.01; O_a    -0.76; O_b    -0.74; H_a    -0.25; H_b    -0.24; H_c    -0.25; H_d    -0.26; H_e    -0.26; H_f    -0.27; 
@    MULPOP    dipole moment & components:     30.9624;      -10.1963     29.2354      0.0000
   1  Level shift: doubly occupied orbital energies shifted by -2.00D-01
 -----------------------------------------------------------------------------
   2  Screening settings (-IFTHRS, JTDIIS, DIFDEN, times)  -10    2    T  1.26D+02  1.27D+02
@  2    -1028.34060922        3.02462D+00   -3.38D+00    2
      Virial theorem: -V/T =      2.000756
@    MULPOP   C_a     0.26; C_b     0.00; C_c     0.18; C_d     0.15; C_e     0.28; C_f     0.18; C_g     0.17; C_h     0.20; C_i    -0.01; C_j     0.15; 
@             C_k     0.01; C_l     0.10; C_m     0.07; C_n    -0.18; C_o    -0.54; C_p     0.36; C_q     0.13; C_r     0.22; C_s    -0.00; C_t     0.13; 
@             N_a    -0.69; N_b    -0.04; O_a    -0.66; O_b    -0.73; H_a    -0.15; H_b    -0.12; H_c    -0.15; H_d    -0.14; H_e    -0.23; H_f    -0.20; 
@    MULPOP    dipole moment & components:     13.5737;       -5.2782     12.5055      0.0000
   2  Level shift: doubly occupied orbital energies shifted by -1.00D-01
 -----------------------------------------------------------------------------
   3  Screening settings (-IFTHRS, JTDIIS, DIFDEN, times)  -10    3    T  1.24D+02  1.25D+02
@  3    -1028.80151020        1.02345D+00   -4.61D-01    3
      Virial theorem: -V/T =      2.001742
@    MULPOP   C_a     0.21; C_b     0.00; C_c     0.16; C_d     0.12; C_e     0.20; C_f     0.13; C_g     0.12; C_h     0.20; C_i    -0.09; C_j     0.11; 
@             C_k    -0.03; C_l     0.11; C_m    -0.09; C_n     0.03; C_o    -0.20; C_p     0.27; C_q     0.12; C_r     0.17; C_s     0.01; C_t     0.10; 
@             N_a    -0.79; N_b     0.64; O_a    -1.20; O_b    -1.07; H_a    -0.11; H_b    -0.10; H_c    -0.10; H_d    -0.08; H_e    -0.17; H_f    -0.13; 
@    MULPOP    dipole moment & components:     11.3466;       -4.6058     10.3698      0.0000
   3  Level shift: doubly occupied orbital energies shifted by -5.00D-02
 -----------------------------------------------------------------------------
   4  Screening settings (-IFTHRS, JTDIIS, DIFDEN, times)  -10    4    T  1.23D+02  1.23D+02
@  4    -1028.86715554        2.99007D-01   -6.56D-02    4
      Virial theorem: -V/T =      2.003442
@    MULPOP   C_a     0.20; C_b     0.04; C_c     0.18; C_d     0.15; C_e     0.19; C_f     0.14; C_g     0.12; C_h     0.22; C_i    -0.11; C_j     0.13; 
@             C_k    -0.04; C_l     0.12; C_m    -0.13; C_n     0.06; C_o    -0.25; C_p     0.24; C_q     0.09; C_r     0.19; C_s     0.02; C_t     0.12; 
@             N_a    -0.82; N_b     0.56; O_a    -1.15; O_b    -1.03; H_a    -0.10; H_b    -0.10; H_c    -0.11; H_d    -0.08; H_e    -0.17; H_f    -0.14; 
@    MULPOP    dipole moment & components:     10.1091;       -4.0402      9.2666      0.0000
   4  Level shift: doubly occupied orbital energies shifted by -2.50D-02
 -----------------------------------------------------------------------------
   5  Screening settings (-IFTHRS, JTDIIS, DIFDEN, times)  -14    5    F  1.36D+02  1.36D+02
@  5    -1028.88041269        1.25461D-01   -1.33D-02    5
      Virial theorem: -V/T =      2.002746
@    MULPOP   C_a     0.20; C_b     0.04; C_c     0.19; C_d     0.15; C_e     0.20; C_f     0.15; C_g     0.12; C_h     0.24; C_i    -0.12; C_j     0.14; 
@             C_k    -0.05; C_l     0.12; C_m    -0.14; C_n     0.03; C_o    -0.24; C_p     0.21; C_q     0.09; C_r     0.18; C_s     0.01; C_t     0.10; 
@             N_a    -0.84; N_b     0.63; O_a    -1.19; O_b    -1.05; H_a    -0.10; H_b    -0.10; H_c    -0.11; H_d    -0.07; H_e    -0.17; H_f    -0.14; 
@    MULPOP    dipole moment & components:      9.3894;       -3.7489      8.6086      0.0000
   5  Level shift: doubly occupied orbital energies shifted by -1.25D-02
 -----------------------------------------------------------------------------
   6  Screening settings (-IFTHRS, JTDIIS, DIFDEN, times)  -14    6    T  1.33D+02  1.34D+02
@  6    -1028.88429469        6.53785D-02   -3.88D-03    6
      Virial theorem: -V/T =      2.002617
@    MULPOP   C_a     0.20; C_b     0.03; C_c     0.17; C_d     0.15; C_e     0.19; C_f     0.14; C_g     0.12; C_h     0.23; C_i    -0.12; C_j     0.13; 
@             C_k    -0.05; C_l     0.12; C_m    -0.14; C_n     0.04; C_o    -0.25; C_p     0.22; C_q     0.09; C_r     0.18; C_s     0.01; C_t     0.10; 
@             N_a    -0.85; N_b     0.63; O_a    -1.18; O_b    -1.04; H_a    -0.10; H_b    -0.09; H_c    -0.10; H_d    -0.07; H_e    -0.17; H_f    -0.13; 
@    MULPOP    dipole moment & components:      8.9922;       -3.5943      8.2426      0.0000
   6  Level shift: doubly occupied orbital energies shifted by -1.25D-02
 -----------------------------------------------------------------------------
   7  Screening settings (-IFTHRS, JTDIIS, DIFDEN, times)  -14    7    T  1.32D+02  1.33D+02
@  7    -1028.88557848        3.14023D-02   -1.28D-03    7
      Virial theorem: -V/T =      2.002651
@    MULPOP   C_a     0.19; C_b     0.03; C_c     0.17; C_d     0.15; C_e     0.19; C_f     0.14; C_g     0.11; C_h     0.23; C_i    -0.12; C_j     0.13; 
@             C_k    -0.05; C_l     0.12; C_m    -0.14; C_n     0.04; C_o    -0.25; C_p     0.22; C_q     0.09; C_r     0.18; C_s     0.01; C_t     0.10; 
@             N_a    -0.85; N_b     0.63; O_a    -1.18; O_b    -1.04; H_a    -0.10; H_b    -0.09; H_c    -0.10; H_d    -0.07; H_e    -0.17; H_f    -0.13; 
@    MULPOP    dipole moment & components:      8.7101;       -3.4709      7.9887      0.0000
 -----------------------------------------------------------------------------
   8  Screening settings (-IFTHRS, JTDIIS, DIFDEN, times)  -14    8    T  1.32D+02  1.33D+02
@  8    -1028.88590267        1.38937D-02   -3.24D-04    8
      Virial theorem: -V/T =      2.002645
@    MULPOP   C_a     0.19; C_b     0.03; C_c     0.17; C_d     0.14; C_e     0.19; C_f     0.14; C_g     0.11; C_h     0.23; C_i    -0.12; C_j     0.13; 
@             C_k    -0.05; C_l     0.12; C_m    -0.14; C_n     0.04; C_o    -0.25; C_p     0.22; C_q     0.09; C_r     0.18; C_s     0.01; C_t     0.10; 
@             N_a    -0.85; N_b     0.64; O_a    -1.18; O_b    -1.04; H_a    -0.10; H_b    -0.09; H_c    -0.10; H_d    -0.07; H_e    -0.17; H_f    -0.13; 
@    MULPOP    dipole moment & components:      8.4821;       -3.4135      7.7649      0.0000
 -----------------------------------------------------------------------------
   9  Screening settings (-IFTHRS, JTDIIS, DIFDEN, times)  -14    9    T  1.31D+02  1.32D+02
@  9    -1028.88594930        5.51775D-03   -4.66D-05    8
      Virial theorem: -V/T =      2.002637
@    MULPOP   C_a     0.19; C_b     0.03; C_c     0.17; C_d     0.14; C_e     0.19; C_f     0.14; C_g     0.11; C_h     0.23; C_i    -0.12; C_j     0.13; 
@             C_k    -0.05; C_l     0.12; C_m    -0.14; C_n     0.04; C_o    -0.25; C_p     0.23; C_q     0.09; C_r     0.18; C_s     0.02; C_t     0.10; 
@             N_a    -0.85; N_b     0.64; O_a    -1.18; O_b    -1.04; H_a    -0.10; H_b    -0.09; H_c    -0.10; H_d    -0.07; H_e    -0.17; H_f    -0.13; 
@    MULPOP    dipole moment & components:      8.3780;       -3.3886      7.6621      0.0000
 -----------------------------------------------------------------------------
  10  Screening settings (-IFTHRS, JTDIIS, DIFDEN, times)  -14   10    T  1.31D+02  1.31D+02
@ 10    -1028.88596165        3.21861D-03   -1.23D-05    8
      Virial theorem: -V/T =      2.002637
@    MULPOP   C_a     0.19; C_b     0.03; C_c     0.17; C_d     0.14; C_e     0.19; C_f     0.14; C_g     0.11; C_h     0.23; C_i    -0.12; C_j     0.13; 
@             C_k    -0.05; C_l     0.12; C_m    -0.14; C_n     0.04; C_o    -0.25; C_p     0.22; C_q     0.09; C_r     0.18; C_s     0.02; C_t     0.10; 
@             N_a    -0.85; N_b     0.64; O_a    -1.18; O_b    -1.04; H_a    -0.10; H_b    -0.09; H_c    -0.10; H_d    -0.07; H_e    -0.17; H_f    -0.13; 
@    MULPOP    dipole moment & components:      8.3021;       -3.3790      7.5833      0.0000
 -----------------------------------------------------------------------------
  11  Screening settings (-IFTHRS, JTDIIS, DIFDEN, times)  -14   11    T  1.29D+02  1.30D+02
@ 11    -1028.88596676        1.96480D-03   -5.12D-06    8
      Virial theorem: -V/T =      2.002638
@    MULPOP   C_a     0.19; C_b     0.03; C_c     0.17; C_d     0.14; C_e     0.19; C_f     0.14; C_g     0.11; C_h     0.23; C_i    -0.12; C_j     0.13; 
@             C_k    -0.05; C_l     0.12; C_m    -0.14; C_n     0.03; C_o    -0.25; C_p     0.22; C_q     0.09; C_r     0.18; C_s     0.02; C_t     0.10; 
@             N_a    -0.85; N_b     0.64; O_a    -1.18; O_b    -1.04; H_a    -0.10; H_b    -0.09; H_c    -0.10; H_d    -0.07; H_e    -0.17; H_f    -0.13; 
@    MULPOP    dipole moment & components:      8.2461;       -3.3732      7.5247      0.0000
 -----------------------------------------------------------------------------
  12  Screening settings (-IFTHRS, JTDIIS, DIFDEN, times)  -14   12    T  1.29D+02  1.30D+02
@ 12    -1028.88596882        6.97922D-04   -2.05D-06    8
      Virial theorem: -V/T =      2.002637
@    MULPOP   C_a     0.19; C_b     0.03; C_c     0.17; C_d     0.14; C_e     0.19; C_f     0.14; C_g     0.11; C_h     0.23; C_i    -0.12; C_j     0.13; 
@             C_k    -0.05; C_l     0.12; C_m    -0.14; C_n     0.03; C_o    -0.25; C_p     0.22; C_q     0.09; C_r     0.18; C_s     0.02; C_t     0.10; 
@             N_a    -0.85; N_b     0.64; O_a    -1.18; O_b    -1.04; H_a    -0.10; H_b    -0.09; H_c    -0.10; H_d    -0.07; H_e    -0.17; H_f    -0.13; 
@    MULPOP    dipole moment & components:      8.1986;       -3.3687      7.4745      0.0000
 -----------------------------------------------------------------------------
  13  Screening settings (-IFTHRS, JTDIIS, DIFDEN, times)  -14   13    T  1.28D+02  1.29D+02
@ 13    -1028.88596907        2.94158D-04   -2.53D-07    8
      Virial theorem: -V/T =      2.002637
@    MULPOP   C_a     0.19; C_b     0.03; C_c     0.17; C_d     0.14; C_e     0.19; C_f     0.14; C_g     0.11; C_h     0.23; C_i    -0.12; C_j     0.13; 
@             C_k    -0.05; C_l     0.12; C_m    -0.14; C_n     0.03; C_o    -0.25; C_p     0.22; C_q     0.09; C_r     0.18; C_s     0.02; C_t     0.10; 
@             N_a    -0.85; N_b     0.64; O_a    -1.18; O_b    -1.04; H_a    -0.09; H_b    -0.09; H_c    -0.10; H_d    -0.07; H_e    -0.17; H_f    -0.13; 
@    MULPOP    dipole moment & components:      8.1807;       -3.3673      7.4556      0.0000
 -----------------------------------------------------------------------------
  14  Screening settings (-IFTHRS, JTDIIS, DIFDEN, times)  -14   14    T  1.27D+02  1.27D+02
@ 14    -1028.88596909        1.44173D-04   -2.15D-08    8
      Virial theorem: -V/T =      2.002637
@    MULPOP   C_a     0.19; C_b     0.03; C_c     0.17; C_d     0.14; C_e     0.19; C_f     0.14; C_g     0.11; C_h     0.23; C_i    -0.12; C_j     0.13; 
@             C_k    -0.05; C_l     0.12; C_m    -0.14; C_n     0.03; C_o    -0.25; C_p     0.22; C_q     0.09; C_r     0.18; C_s     0.02; C_t     0.10; 
@             N_a    -0.85; N_b     0.64; O_a    -1.18; O_b    -1.04; H_a    -0.09; H_b    -0.09; H_c    -0.10; H_d    -0.07; H_e    -0.17; H_f    -0.13; 
@    MULPOP    dipole moment & components:      8.1775;       -3.3672      7.4520      0.0000
 -----------------------------------------------------------------------------
  15  Screening settings (-IFTHRS, JTDIIS, DIFDEN, times)  -14   15    T  1.26D+02  1.26D+02
@ 15    -1028.88596910        6.24862D-05   -4.68D-09    8
      Virial theorem: -V/T =      2.002637
@    MULPOP   C_a     0.19; C_b     0.03; C_c     0.17; C_d     0.14; C_e     0.19; C_f     0.14; C_g     0.11; C_h     0.23; C_i    -0.12; C_j     0.13; 
@             C_k    -0.05; C_l     0.12; C_m    -0.14; C_n     0.03; C_o    -0.25; C_p     0.22; C_q     0.09; C_r     0.18; C_s     0.02; C_t     0.10; 
@             N_a    -0.85; N_b     0.64; O_a    -1.18; O_b    -1.04; H_a    -0.09; H_b    -0.09; H_c    -0.10; H_d    -0.07; H_e    -0.17; H_f    -0.13; 
@    MULPOP    dipole moment & components:      8.1760;       -3.3671      7.4504      0.0000
 -----------------------------------------------------------------------------
  16  Screening settings (-IFTHRS, JTDIIS, DIFDEN, times)  -14   16    T  1.22D+02  1.23D+02
@ 16    -1028.88596910        2.76880D-05   -5.99D-10    8
      Virial theorem: -V/T =      2.002637
@    MULPOP   C_a     0.19; C_b     0.03; C_c     0.17; C_d     0.14; C_e     0.19; C_f     0.14; C_g     0.11; C_h     0.23; C_i    -0.12; C_j     0.13; 
@             C_k    -0.05; C_l     0.12; C_m    -0.14; C_n     0.03; C_o    -0.25; C_p     0.22; C_q     0.09; C_r     0.18; C_s     0.02; C_t     0.10; 
@             N_a    -0.85; N_b     0.64; O_a    -1.18; O_b    -1.04; H_a    -0.09; H_b    -0.09; H_c    -0.10; H_d    -0.07; H_e    -0.17; H_f    -0.13; 
@    MULPOP    dipole moment & components:      8.1756;       -3.3671      7.4501      0.0000
 -----------------------------------------------------------------------------
  17  Screening settings (-IFTHRS, JTDIIS, DIFDEN, times)  -14   17    T  1.23D+02  1.23D+02
@ 17    -1028.88596910        1.79927D-05   -2.43D-10    8
      Virial theorem: -V/T =      2.002637
@    MULPOP   C_a     0.19; C_b     0.03; C_c     0.17; C_d     0.14; C_e     0.19; C_f     0.14; C_g     0.11; C_h     0.23; C_i    -0.12; C_j     0.13; 
@             C_k    -0.05; C_l     0.12; C_m    -0.14; C_n     0.03; C_o    -0.25; C_p     0.22; C_q     0.09; C_r     0.18; C_s     0.02; C_t     0.10; 
@             N_a    -0.85; N_b     0.64; O_a    -1.18; O_b    -1.04; H_a    -0.09; H_b    -0.09; H_c    -0.10; H_d    -0.07; H_e    -0.17; H_f    -0.13; 
@    MULPOP    dipole moment & components:      8.1755;       -3.3671      7.4499      0.0000
 -----------------------------------------------------------------------------
  18  Screening settings (-IFTHRS, JTDIIS, DIFDEN, times)  -14   18    T  1.23D+02  1.23D+02
@ 18    -1028.88596910        7.82801D-06   -1.01D-10    8

@ *** DIIS converged in  18 iterations !
@     Converged SCF energy, gradient:  -1028.885969096209    7.83D-06
    - total time used in SIRFCK :              0.00 seconds


 *** SCF orbital energy analysis ***

 Only the 20 lowest virtual orbital energies printed in each symmetry.

 Number of electrons :  172
 Orbital occupations :   86

 Sym       Hartree-Fock orbital energies

1 A     -20.58659525   -20.58375284   -15.83703921   -15.59342228   -11.30377667
        -11.28871479   -11.28714484   -11.27764438   -11.26952868   -11.26356045
        -11.25883556   -11.25851592   -11.25495630   -11.25409576   -11.25386742
        -11.25180150   -11.25071713   -11.24993950   -11.24742743   -11.24392731
        -11.24003166   -11.23550272   -11.23049781   -11.22792712    -1.57700921
         -1.37489782    -1.23834489    -1.14240226    -1.12697013    -1.11641678
         -1.10482936    -1.08941459    -1.07009203    -1.04720065    -1.02102276
         -0.99184777    -0.96017239    -0.93570582    -0.88540185    -0.85139393
         -0.82002598    -0.79638014    -0.78458738    -0.77883655    -0.77077289
         -0.76565416    -0.75540574    -0.75268047    -0.73387656    -0.71836118
         -0.71063672    -0.69489628    -0.68185910    -0.67208345    -0.66367907
         -0.64919252    -0.63940132    -0.61966113    -0.61598377    -0.59895849
         -0.58515587    -0.57792730    -0.56223592    -0.55539573    -0.54779037
         -0.53618674    -0.53360253    -0.52683367    -0.52598933    -0.51948832
         -0.51299783    -0.50699506    -0.49940948    -0.49816365    -0.48435721
         -0.47960829    -0.47721989    -0.46930817    -0.44889461    -0.43816336
         -0.42279811    -0.39138671    -0.35495829    -0.31429170    -0.27129709
         -0.23001486     0.00006778     0.00438817     0.00637183     0.00684207
          0.00766621     0.00883504     0.01185955     0.01248677     0.01329419
          0.01621394     0.01793108     0.01858605     0.01893800     0.02015154
          0.02247284     0.02310145     0.02328238     0.02373751     0.02394499
          0.02618244

    E(LUMO) :     0.00006778 au (symmetry 1)
  - E(HOMO) :    -0.23001486 au (symmetry 1)
  ------------------------------------------
    gap     :     0.23008264 au

 --- Writing SIRIFC interface file

 CPU and wall time for SCF :    3589.706    3607.611


                       .-----------------------------------.
                       | --- Final results from SIRIUS --- |
                       `-----------------------------------'


@    Spin multiplicity:           1
@    Spatial symmetry:            1 ( irrep  A   in C1  )
@    Total charge of molecule:    0

@    Final HF energy:           -1028.885969096209                 
@    Nuclear repulsion:          1425.837764718247
@    Electronic energy:         -2454.723733814456

@    Final gradient norm:           0.000007828013

 
     Date and time (Linux)  : Fri May 30 21:37:55 2025
     Host name              : xm052                                   

File label for MO orbitals:  30May25   FOCKDIIS

 (Only coefficients > 0.0100 are printed.)

 Molecular orbitals for symmetry species 1  (A  )
 ------------------------------------------------

    Orbital        77       78       79       80       81       82       83
   4 C_a :1s     0.0242   0.0000   0.0000   0.0000  -0.0000   0.0000   0.0000
   5 C_a :1s    -0.0191  -0.0000   0.0000  -0.0000   0.0000   0.0000  -0.0000
   9 C_a :2pz   -0.0000   0.2005  -0.2207   0.0132  -0.0407  -0.1894   0.2283
  14 C_a :2py    0.0312  -0.0000   0.0000   0.0000   0.0000   0.0000   0.0000
  15 C_a :2pz    0.0000   0.0083   0.0186  -0.0119   0.0054   0.0059  -0.0317
  16 C_a :2px   -0.0149   0.0000   0.0000   0.0000  -0.0000   0.0000  -0.0000
  17 C_a :2py   -0.0441   0.0000   0.0000  -0.0000  -0.0000   0.0000  -0.0000
  18 C_a :2pz   -0.0000   0.0088  -0.0578   0.0927   0.0274  -0.1173   0.2125
  19 C_a :2px   -0.0427   0.0000  -0.0000   0.0000  -0.0000  -0.0000  -0.0000
  20 C_a :2py    0.0183  -0.0000   0.0000  -0.0000   0.0000   0.0000   0.0000
  21 C_a :2pz   -0.0000  -0.0258   0.0137  -0.0867   0.0287  -0.0181   0.1142
  28 C_a :3d1-  -0.0000   0.0065  -0.0020   0.0005   0.0080  -0.0117   0.0019
  32 C_a :3d2-  -0.0207   0.0000  -0.0000  -0.0000  -0.0000  -0.0000   0.0000
  33 C_a :3d1-  -0.0000  -0.0165   0.0087  -0.0090   0.0068  -0.0116  -0.0058
  35 C_a :3d1+   0.0000   0.0087   0.0034  -0.0037   0.0032   0.0151  -0.0312
  38 C_a :3d1-   0.0000   0.0035   0.0221   0.0036  -0.0777  -0.0158   0.0018
  39 C_a :3d0    0.0323   0.0000  -0.0000  -0.0000  -0.0000  -0.0000   0.0000
  40 C_a :3d1+  -0.0000  -0.0027  -0.0171   0.0066   0.0335  -0.0146   0.0284
  41 C_a :3d2+  -0.0342  -0.0000  -0.0000   0.0000   0.0000  -0.0000   0.0000
  56 C_a :4f3-  -0.0305  -0.0000  -0.0000  -0.0000  -0.0000  -0.0000  -0.0000
  57 C_a :4f2-   0.0000  -0.0048   0.0164  -0.0007   0.0093   0.0065  -0.0197
  59 C_a :4f0    0.0000  -0.0071   0.0134  -0.0055   0.0016   0.0113  -0.0176
  61 C_a :4f2+   0.0000  -0.0121   0.0148  -0.0074   0.0004   0.0230  -0.0356
  66 C_b :1s    -0.0271  -0.0000  -0.0000   0.0000   0.0000  -0.0000   0.0000
  67 C_b :1s    -0.0265  -0.0000   0.0000  -0.0000   0.0000   0.0000   0.0000
  71 C_b :2pz   -0.0000   0.2314  -0.1473   0.0153   0.0988  -0.2381   0.1016
  75 C_b :2px    0.0197   0.0000   0.0000   0.0000  -0.0000   0.0000   0.0000
  76 C_b :2py    0.0440   0.0000  -0.0000   0.0000  -0.0000  -0.0000   0.0000
  77 C_b :2pz    0.0000  -0.0006   0.0106  -0.0104  -0.0287   0.0142   0.0025
  78 C_b :2px   -0.0733   0.0000   0.0000  -0.0000  -0.0000   0.0000   0.0000
  79 C_b :2py    0.0398  -0.0000   0.0000   0.0000  -0.0000   0.0000  -0.0000
  80 C_b :2pz   -0.0000   0.0485  -0.0616  -0.0269   0.0456  -0.1137   0.0819
  81 C_b :2px   -0.0214   0.0000   0.0000  -0.0000  -0.0000   0.0000  -0.0000
  82 C_b :2py    0.0318  -0.0000   0.0000  -0.0000   0.0000   0.0000  -0.0000
  83 C_b :2pz   -0.0000   0.0022   0.0043   0.0181   0.0116  -0.0341   0.0439
  90 C_b :3d1-  -0.0000  -0.0037   0.0092  -0.0003   0.0068   0.0064  -0.0163
  94 C_b :3d2-  -0.0258   0.0000  -0.0000   0.0000  -0.0000  -0.0000  -0.0000
  95 C_b :3d1-   0.0000   0.0147   0.0082  -0.0190  -0.0065  -0.0185  -0.0244
  97 C_b :3d1+  -0.0000  -0.0066  -0.0048   0.0102   0.0142  -0.0158   0.0152
  99 C_b :3d2-  -0.0587  -0.0000   0.0000   0.0000   0.0000   0.0000   0.0000
 100 C_b :3d1-   0.0000   0.0200   0.0106  -0.0471  -0.0600  -0.0355   0.0526
 101 C_b :3d0   -0.0275  -0.0000  -0.0000   0.0000  -0.0000  -0.0000   0.0000
 102 C_b :3d1+   0.0000  -0.0149   0.0171   0.0091   0.0021   0.0061  -0.0145
 103 C_b :3d2+   0.0177   0.0000  -0.0000   0.0000  -0.0000   0.0000  -0.0000
 119 C_b :4f2-  -0.0000  -0.0138  -0.0013   0.0030  -0.0116   0.0181  -0.0047
 121 C_b :4f0    0.0000  -0.0097   0.0090  -0.0038  -0.0098   0.0145  -0.0065
 123 C_b :4f2+   0.0000  -0.0105   0.0160  -0.0086  -0.0113   0.0263  -0.0141
 124 C_b :4f3+   0.0138  -0.0000   0.0000   0.0000  -0.0000   0.0000   0.0000
 128 C_c :1s    -0.0440  -0.0000   0.0000   0.0000   0.0000   0.0000   0.0000
 129 C_c :1s     0.0415  -0.0000  -0.0000   0.0000  -0.0000   0.0000   0.0000
 130 C_c :1s     0.0182  -0.0000   0.0000  -0.0000   0.0000   0.0000  -0.0000
 133 C_c :2pz    0.0000   0.2192   0.0215   0.0104   0.2405  -0.1026  -0.2002
 138 C_c :2py   -0.0188  -0.0000  -0.0000  -0.0000   0.0000  -0.0000   0.0000
 139 C_c :2pz   -0.0000  -0.0151   0.0066   0.0018  -0.0141   0.0226   0.0026
 140 C_c :2px   -0.0354  -0.0000   0.0000  -0.0000   0.0000   0.0000   0.0000
 141 C_c :2py   -0.0422   0.0000  -0.0000   0.0000  -0.0000  -0.0000  -0.0000
 142 C_c :2pz    0.0000   0.0891   0.0189   0.0130   0.0718  -0.0420  -0.1686
 143 C_c :2px    0.0181  -0.0000   0.0000  -0.0000   0.0000   0.0000   0.0000
 144 C_c :2py   -0.0127   0.0000   0.0000   0.0000  -0.0000   0.0000  -0.0000
 145 C_c :2pz    0.0000   0.0068   0.0007   0.0244  -0.0063  -0.0159  -0.0622
 152 C_c :3d1-  -0.0000   0.0027   0.0073  -0.0003   0.0070   0.0074  -0.0134
 156 C_c :3d2-   0.0185  -0.0000   0.0000   0.0000   0.0000   0.0000   0.0000
 157 C_c :3d1-   0.0000   0.0454   0.0040  -0.0157  -0.0089  -0.0077  -0.0171
 159 C_c :3d1+  -0.0000  -0.0166  -0.0012   0.0054  -0.0059   0.0192   0.0229
 160 C_c :3d2+  -0.0164  -0.0000   0.0000  -0.0000   0.0000   0.0000   0.0000
 161 C_c :3d2-   0.0507   0.0000  -0.0000  -0.0000  -0.0000  -0.0000  -0.0000
 162 C_c :3d1-   0.0000   0.0609  -0.0168   0.0349  -0.0150  -0.0879   0.0185
 164 C_c :3d1+   0.0000   0.0097   0.0065  -0.0061   0.0059   0.0273  -0.0265
 165 C_c :3d2+   0.0436   0.0000   0.0000   0.0000   0.0000   0.0000   0.0000
 181 C_c :4f2-  -0.0000  -0.0049   0.0097  -0.0034  -0.0118   0.0081   0.0114
 183 C_c :4f0   -0.0000  -0.0129  -0.0002   0.0003  -0.0140   0.0078   0.0115
 185 C_c :4f2+  -0.0000  -0.0223  -0.0080  -0.0007  -0.0206   0.0168   0.0256
 190 C_d :1s     0.0128   0.0000  -0.0000  -0.0000  -0.0000   0.0000   0.0000
 195 C_d :2pz    0.0000   0.1668   0.1314   0.0030   0.2225   0.0579  -0.2382
 199 C_d :2px   -0.0300   0.0000  -0.0000  -0.0000  -0.0000  -0.0000  -0.0000
 200 C_d :2py   -0.0107   0.0000   0.0000   0.0000  -0.0000   0.0000  -0.0000
 201 C_d :2pz   -0.0000  -0.0096  -0.0141   0.0049  -0.0109  -0.0194   0.0230
 202 C_d :2px    0.0614  -0.0000  -0.0000  -0.0000  -0.0000  -0.0000  -0.0000
 203 C_d :2py   -0.0264   0.0000   0.0000  -0.0000  -0.0000   0.0000  -0.0000
 204 C_d :2pz    0.0000   0.0524   0.0354  -0.0191   0.0628   0.0169  -0.1917
 205 C_d :2px    0.0207  -0.0000  -0.0000  -0.0000   0.0000   0.0000   0.0000
 206 C_d :2py   -0.0319   0.0000  -0.0000   0.0000  -0.0000  -0.0000  -0.0000
 207 C_d :2pz    0.0000  -0.0014   0.0097  -0.0070   0.0064  -0.0010  -0.0581
 214 C_d :3d1-  -0.0000  -0.0067   0.0036  -0.0006  -0.0089   0.0102   0.0090
 219 C_d :3d1-  -0.0000   0.0469   0.0063  -0.0043   0.0027  -0.0032  -0.0024
 221 C_d :3d1+   0.0000  -0.0074   0.0047   0.0010   0.0063   0.0092  -0.0318
 222 C_d :3d2+   0.0303  -0.0000   0.0000   0.0000   0.0000   0.0000   0.0000
 223 C_d :3d2-   0.0318   0.0000  -0.0000   0.0000  -0.0000  -0.0000  -0.0000
 224 C_d :3d1-   0.0000   0.0803  -0.0012  -0.0182  -0.0186  -0.0825  -0.0394
 226 C_d :3d1+  -0.0000  -0.0410  -0.0176   0.0228   0.0011   0.0267   0.0226
 227 C_d :3d2+  -0.0186  -0.0000   0.0000  -0.0000   0.0000   0.0000   0.0000
 242 C_d :4f3-  -0.0116  -0.0000  -0.0000  -0.0000  -0.0000  -0.0000  -0.0000
 243 C_d :4f2-  -0.0000  -0.0143  -0.0165   0.0031  -0.0079  -0.0045   0.0194
 245 C_d :4f0   -0.0000  -0.0104  -0.0085   0.0000  -0.0123  -0.0047   0.0166
 247 C_d :4f2+  -0.0000  -0.0132  -0.0065  -0.0025  -0.0193  -0.0080   0.0359
 254 C_e :1s     0.0131  -0.0000   0.0000  -0.0000   0.0000   0.0000   0.0000
 257 C_e :2pz    0.0000   0.0544   0.2392  -0.0092   0.0614   0.2434  -0.0296
 261 C_e :2px   -0.0186  -0.0000  -0.0000  -0.0000   0.0000  -0.0000   0.0000
 262 C_e :2py    0.0283  -0.0000   0.0000  -0.0000   0.0000   0.0000   0.0000
 263 C_e :2pz   -0.0000   0.0054  -0.0113  -0.0072  -0.0218  -0.0171   0.0184
 264 C_e :2px    0.0268   0.0000  -0.0000   0.0000  -0.0000  -0.0000  -0.0000
 265 C_e :2py    0.0533  -0.0000  -0.0000   0.0000   0.0000  -0.0000   0.0000
 266 C_e :2pz    0.0000  -0.0087   0.0872   0.0040   0.0207   0.1068  -0.0316
 267 C_e :2px    0.0167   0.0000  -0.0000   0.0000  -0.0000  -0.0000  -0.0000
 269 C_e :2pz    0.0000   0.0111  -0.0139   0.0339  -0.0149   0.0358  -0.0255
 276 C_e :3d1-   0.0000  -0.0029   0.0068  -0.0007  -0.0073   0.0080   0.0117
 280 C_e :3d2-  -0.0127   0.0000  -0.0000  -0.0000  -0.0000  -0.0000  -0.0000
 281 C_e :3d1-  -0.0000   0.0716   0.0254  -0.0101   0.0043  -0.0166   0.0269
 283 C_e :3d1+   0.0000  -0.0190  -0.0098  -0.0026  -0.0095  -0.0146   0.0043
 285 C_e :3d2-  -0.0420  -0.0000  -0.0000   0.0000   0.0000  -0.0000   0.0000
 286 C_e :3d1-   0.0000   0.1070   0.0421  -0.0251   0.0266  -0.0467  -0.1091
 288 C_e :3d1+  -0.0000  -0.0299   0.0103   0.0161   0.0062   0.0065   0.0355
 289 C_e :3d2+  -0.0166   0.0000  -0.0000   0.0000  -0.0000  -0.0000   0.0000
 304 C_e :4f3-  -0.0115   0.0000  -0.0000  -0.0000  -0.0000  -0.0000  -0.0000
 305 C_e :4f2-  -0.0000   0.0032  -0.0011  -0.0022  -0.0097  -0.0193   0.0078
 307 C_e :4f0   -0.0000  -0.0011  -0.0135  -0.0008  -0.0062  -0.0151   0.0037
 309 C_e :4f2+   0.0000  -0.0078  -0.0238  -0.0009  -0.0049  -0.0259   0.0079
 310 C_e :4f3+   0.0142   0.0000  -0.0000  -0.0000   0.0000  -0.0000   0.0000
 314 C_f :1s     0.0273  -0.0000  -0.0000  -0.0000   0.0000   0.0000   0.0000
 315 C_f :1s     0.0225  -0.0000  -0.0000  -0.0000   0.0000   0.0000   0.0000
 316 C_f :1s    -0.0418  -0.0000  -0.0000   0.0000   0.0000  -0.0000   0.0000
 319 C_f :2pz   -0.0000  -0.0336   0.2408  -0.0143  -0.0784   0.2162   0.1381
 323 C_f :2px    0.0114  -0.0000   0.0000  -0.0000   0.0000   0.0000   0.0000
 324 C_f :2py   -0.0146  -0.0000  -0.0000  -0.0000   0.0000  -0.0000  -0.0000
 325 C_f :2pz    0.0000   0.0069  -0.0193   0.0033   0.0111  -0.0103  -0.0365
 328 C_f :2pz   -0.0000  -0.0187   0.0410   0.0166   0.0097   0.1359   0.1426
 329 C_f :2px   -0.0111   0.0000  -0.0000   0.0000  -0.0000  -0.0000  -0.0000
 330 C_f :2py    0.0199   0.0000   0.0000  -0.0000   0.0000   0.0000   0.0000
 331 C_f :2pz   -0.0000  -0.0095  -0.0058  -0.0353  -0.0004   0.0307   0.0441
 338 C_f :3d1-   0.0000  -0.0037  -0.0062  -0.0001  -0.0075  -0.0110   0.0072
 342 C_f :3d2-  -0.0209   0.0000  -0.0000   0.0000  -0.0000  -0.0000   0.0000
 343 C_f :3d1-  -0.0000   0.0898   0.0369  -0.0155  -0.0074  -0.0202   0.0156
 345 C_f :3d1+  -0.0000  -0.0167  -0.0022   0.0030  -0.0045   0.0208   0.0231
 346 C_f :3d2+   0.0187   0.0000  -0.0000  -0.0000  -0.0000   0.0000   0.0000
 347 C_f :3d2-   0.0258  -0.0000   0.0000  -0.0000   0.0000   0.0000  -0.0000
 348 C_f :3d1-   0.0000   0.0930   0.0559   0.0114   0.0243  -0.0373  -0.0832
 350 C_f :3d1+  -0.0000  -0.0121  -0.0239  -0.0156  -0.0144  -0.0048   0.0023
 351 C_f :3d2+   0.0212  -0.0000  -0.0000  -0.0000   0.0000   0.0000   0.0000
 367 C_f :4f2-   0.0000  -0.0108  -0.0177   0.0048   0.0116  -0.0073  -0.0149
 369 C_f :4f0    0.0000   0.0012  -0.0153   0.0010   0.0044  -0.0122  -0.0133
 371 C_f :4f2+   0.0000   0.0005  -0.0187  -0.0010   0.0049  -0.0253  -0.0248
 376 C_g :1s     0.0105   0.0000  -0.0000  -0.0000   0.0000   0.0000   0.0000
 378 C_g :1s     0.0128   0.0000   0.0000   0.0000  -0.0000   0.0000  -0.0000
 381 C_g :2pz   -0.0000  -0.1543   0.1552  -0.0151  -0.2362  -0.0018   0.2335
 385 C_g :2px    0.0178  -0.0000   0.0000  -0.0000   0.0000   0.0000   0.0000
 386 C_g :2py    0.0242   0.0000   0.0000  -0.0000  -0.0000  -0.0000  -0.0000
 387 C_g :2pz    0.0000   0.0019  -0.0151   0.0088   0.0148  -0.0140  -0.0224
 389 C_g :2py   -0.0176   0.0000   0.0000   0.0000   0.0000   0.0000   0.0000
 390 C_g :2pz   -0.0000  -0.0187   0.0482  -0.0247  -0.1153  -0.0068   0.1508
 391 C_g :2px   -0.0316   0.0000   0.0000  -0.0000  -0.0000  -0.0000  -0.0000
 393 C_g :2pz   -0.0000  -0.0172   0.0148  -0.0473   0.0264  -0.0258   0.0988
 400 C_g :3d1-   0.0000  -0.0058  -0.0018  -0.0002  -0.0081  -0.0109   0.0018
 405 C_g :3d1-  -0.0000   0.0747   0.0515  -0.0069  -0.0106  -0.0213  -0.0232
 406 C_g :3d0   -0.0110   0.0000   0.0000   0.0000  -0.0000   0.0000  -0.0000
 407 C_g :3d1+   0.0000  -0.0331  -0.0193   0.0047   0.0140   0.0012  -0.0221
 408 C_g :3d2+   0.0246  -0.0000   0.0000  -0.0000   0.0000   0.0000   0.0000
 409 C_g :3d2-  -0.0275   0.0000  -0.0000  -0.0000   0.0000   0.0000   0.0000
 410 C_g :3d1-   0.0000   0.0787   0.0924  -0.0243  -0.0053   0.0346   0.0099
 412 C_g :3d1+  -0.0000  -0.0210  -0.0075  -0.0024  -0.0193  -0.0029  -0.0044
 413 C_g :3d2+  -0.0192  -0.0000   0.0000  -0.0000   0.0000   0.0000   0.0000
 429 C_g :4f2-  -0.0000   0.0093  -0.0026  -0.0001   0.0063  -0.0099  -0.0222
 431 C_g :4f0    0.0000   0.0058  -0.0098   0.0023   0.0145  -0.0013  -0.0155
 433 C_g :4f2+   0.0000  -0.0051  -0.0173   0.0031   0.0270   0.0032  -0.0302
 438 C_h :1s    -0.0509   0.0000  -0.0000   0.0000  -0.0000   0.0000   0.0000
 439 C_h :1s     0.0109   0.0000   0.0000  -0.0000  -0.0000   0.0000  -0.0000
 443 C_h :2pz   -0.0000  -0.2139   0.0510  -0.0104  -0.2406  -0.1513   0.1091
 447 C_h :2px    0.0274   0.0000  -0.0000   0.0000  -0.0000  -0.0000   0.0000
 449 C_h :2pz    0.0000   0.0095   0.0059  -0.0008   0.0169   0.0201   0.0128
 451 C_h :2py    0.0104  -0.0000   0.0000  -0.0000   0.0000   0.0000   0.0000
 452 C_h :2pz   -0.0000  -0.0164   0.0375  -0.0085  -0.1123  -0.0849   0.0186
 453 C_h :2px    0.0208   0.0000   0.0000  -0.0000   0.0000   0.0000   0.0000
 454 C_h :2py   -0.0143  -0.0000  -0.0000   0.0000  -0.0000  -0.0000  -0.0000
 455 C_h :2pz    0.0000   0.0179  -0.0020   0.0611  -0.0163  -0.0271  -0.0135
 462 C_h :3d1-  -0.0000   0.0019  -0.0076   0.0007   0.0072  -0.0058  -0.0160
 466 C_h :3d2-   0.0209  -0.0000   0.0000  -0.0000   0.0000   0.0000   0.0000
 467 C_h :3d1-  -0.0000   0.0755   0.0631  -0.0020  -0.0186  -0.0278  -0.0281
 469 C_h :3d1+   0.0000  -0.0031  -0.0121   0.0023  -0.0103  -0.0126   0.0085
 471 C_h :3d2-  -0.0508  -0.0000  -0.0000   0.0000  -0.0000  -0.0000   0.0000
 472 C_h :3d1-   0.0000   0.0825   0.0962  -0.0043  -0.0281   0.0097   0.0225
 473 C_h :3d0    0.0208   0.0000  -0.0000   0.0000  -0.0000   0.0000   0.0000
 474 C_h :3d1+  -0.0000  -0.0195  -0.0396   0.0083   0.0358   0.0137   0.0058
 475 C_h :3d2+   0.0224   0.0000   0.0000   0.0000   0.0000   0.0000   0.0000
 491 C_h :4f2-   0.0000  -0.0084  -0.0064   0.0006   0.0145   0.0169  -0.0003
 493 C_h :4f0   -0.0000   0.0084  -0.0030   0.0004   0.0155   0.0107  -0.0022
 495 C_h :4f2+  -0.0000   0.0073  -0.0049  -0.0008   0.0245   0.0172  -0.0081
 500 C_i :1s     0.0330  -0.0000   0.0000  -0.0000   0.0000   0.0000  -0.0000
 502 C_i :1s    -0.0158   0.0000  -0.0000   0.0000  -0.0000  -0.0000  -0.0000
 505 C_i :2pz    0.0000  -0.2659  -0.1171   0.0010  -0.1137  -0.2485  -0.1897
 509 C_i :2px    0.0165   0.0000  -0.0000   0.0000  -0.0000  -0.0000  -0.0000
 510 C_i :2py   -0.0340  -0.0000  -0.0000   0.0000  -0.0000  -0.0000  -0.0000
 511 C_i :2pz   -0.0000   0.0092   0.0034  -0.0041   0.0186   0.0218   0.0046
 512 C_i :2px    0.0144  -0.0000  -0.0000   0.0000  -0.0000  -0.0000  -0.0000
 513 C_i :2py   -0.0214  -0.0000  -0.0000   0.0000  -0.0000  -0.0000   0.0000
 514 C_i :2pz    0.0000  -0.0804  -0.0526   0.0277  -0.0336  -0.1366  -0.1284
 515 C_i :2px    0.0343  -0.0000   0.0000  -0.0000   0.0000   0.0000   0.0000
 516 C_i :2py   -0.0238   0.0000  -0.0000  -0.0000  -0.0000  -0.0000  -0.0000
 517 C_i :2pz    0.0000   0.0143  -0.0042   0.0254  -0.0277  -0.0012  -0.1193
 524 C_i :3d1-   0.0000  -0.0047  -0.0072   0.0004   0.0049  -0.0040  -0.0136
 526 C_i :3d1+   0.0000  -0.0109  -0.0032  -0.0001  -0.0056  -0.0077  -0.0027
 529 C_i :3d1-  -0.0000   0.0487   0.0649  -0.0102  -0.0282  -0.0200  -0.0179
 531 C_i :3d1+  -0.0000  -0.0279  -0.0224  -0.0006   0.0180   0.0284   0.0224
 533 C_i :3d2-   0.0333  -0.0000  -0.0000   0.0000  -0.0000   0.0000  -0.0000
 534 C_i :3d1-   0.0000   0.0563   0.1145  -0.0113  -0.1046  -0.0799  -0.0064
 536 C_i :3d1+  -0.0000  -0.0360  -0.0374   0.0052   0.0208   0.0058   0.0035
 537 C_i :3d2+   0.0114  -0.0000   0.0000  -0.0000   0.0000   0.0000  -0.0000
 553 C_i :4f2-  -0.0000   0.0124   0.0079  -0.0023   0.0078   0.0100   0.0095
 555 C_i :4f0   -0.0000   0.0107   0.0060  -0.0012   0.0085   0.0162   0.0117
 557 C_i :4f2+  -0.0000  -0.0010   0.0001  -0.0022   0.0164   0.0349   0.0283
 563 C_j :1s     0.0145  -0.0000  -0.0000  -0.0000  -0.0000   0.0000  -0.0000
 564 C_j :1s     0.0227  -0.0000   0.0000  -0.0000   0.0000   0.0000   0.0000
 567 C_j :2pz   -0.0000  -0.2645  -0.2021   0.0085   0.0235  -0.1631  -0.2419
 573 C_j :2pz    0.0000   0.0013   0.0115   0.0019  -0.0075   0.0089   0.0238
 574 C_j :2px    0.0241  -0.0000   0.0000  -0.0000  -0.0000   0.0000  -0.0000
 575 C_j :2py    0.0108   0.0000   0.0000   0.0000  -0.0000   0.0000  -0.0000
 576 C_j :2pz    0.0000  -0.0630  -0.0547  -0.0164   0.0163  -0.0553  -0.1341
 577 C_j :2px   -0.0240  -0.0000  -0.0000   0.0000  -0.0000  -0.0000  -0.0000
 578 C_j :2py   -0.0124   0.0000   0.0000  -0.0000  -0.0000  -0.0000  -0.0000
 579 C_j :2pz   -0.0000  -0.0201   0.0058  -0.0503   0.0185   0.0028  -0.0045
 586 C_j :3d1-   0.0000   0.0060   0.0001   0.0002   0.0089   0.0128   0.0072
 588 C_j :3d1+  -0.0000   0.0105   0.0085  -0.0004  -0.0030   0.0026   0.0056
 591 C_j :3d1-  -0.0000   0.0400   0.0547  -0.0105  -0.0229  -0.0103  -0.0045
 593 C_j :3d1+   0.0000   0.0071  -0.0101   0.0022   0.0075  -0.0101  -0.0285
 595 C_j :3d2-   0.0165   0.0000   0.0000   0.0000  -0.0000   0.0000  -0.0000
 596 C_j :3d1-   0.0000   0.0244   0.0801  -0.0208  -0.0793  -0.0678  -0.0413
 597 C_j :3d0   -0.0135   0.0000  -0.0000  -0.0000  -0.0000  -0.0000  -0.0000
 598 C_j :3d1+  -0.0000   0.0158   0.0029   0.0007   0.0048   0.0202   0.0116
 615 C_j :4f2-   0.0000  -0.0079  -0.0019   0.0013  -0.0020   0.0095   0.0159
 617 C_j :4f0    0.0000   0.0101   0.0108  -0.0001  -0.0024   0.0090   0.0142
 619 C_j :4f2+  -0.0000   0.0096   0.0137  -0.0007   0.0002   0.0184   0.0342
 624 C_k :1s    -0.0523   0.0000   0.0000  -0.0000  -0.0000   0.0000  -0.0000
 626 C_k :1s     0.0350  -0.0000  -0.0000   0.0000   0.0000  -0.0000   0.0000
 629 C_k :2pz   -0.0000  -0.2274  -0.2629   0.0161   0.2111   0.0881  -0.0670
 635 C_k :2pz    0.0000   0.0148   0.0305   0.0005  -0.0294  -0.0118  -0.0010
 637 C_k :2py    0.0138   0.0000   0.0000  -0.0000   0.0000   0.0000  -0.0000
 638 C_k :2pz   -0.0000  -0.0433  -0.1020   0.0034   0.1070   0.0772  -0.0313
 639 C_k :2px   -0.0194   0.0000  -0.0000   0.0000  -0.0000  -0.0000  -0.0000
 640 C_k :2py    0.0158  -0.0000   0.0000  -0.0000   0.0000   0.0000  -0.0000
 641 C_k :2pz   -0.0000  -0.0082  -0.0063  -0.0026   0.0204   0.0191   0.0861
 648 C_k :3d1-   0.0000  -0.0010  -0.0038   0.0004   0.0080   0.0110   0.0096
 653 C_k :3d1-  -0.0000   0.0170   0.0419  -0.0029  -0.0323  -0.0191   0.0102
 655 C_k :3d1+   0.0000  -0.0124  -0.0022   0.0010  -0.0086  -0.0080   0.0003
 656 C_k :3d2+  -0.0170  -0.0000   0.0000  -0.0000   0.0000   0.0000  -0.0000
 657 C_k :3d2-  -0.0158   0.0000  -0.0000  -0.0000  -0.0000  -0.0000  -0.0000
 658 C_k :3d1-   0.0000  -0.0004   0.0359   0.0033  -0.0515  -0.1065  -0.1063
 660 C_k :3d1+  -0.0000  -0.0059  -0.0219  -0.0006   0.0229   0.0223   0.0150
 677 C_k :4f2-   0.0000   0.0123   0.0216  -0.0014  -0.0155  -0.0114  -0.0001
 679 C_k :4f0    0.0000   0.0077   0.0148  -0.0004  -0.0138  -0.0057   0.0030
 681 C_k :4f2+   0.0000  -0.0010   0.0140  -0.0001  -0.0197  -0.0105   0.0075
 686 C_l :1s    -0.0267  -0.0000  -0.0000  -0.0000  -0.0000   0.0000  -0.0000
 687 C_l :1s    -0.0143   0.0000   0.0000  -0.0000   0.0000   0.0000  -0.0000
 688 C_l :1s     0.0442  -0.0000   0.0000  -0.0000   0.0000   0.0000   0.0000
 691 C_l :2pz   -0.0000  -0.1690  -0.2324   0.0158   0.2482   0.2064   0.1081
 697 C_l :2pz    0.0000  -0.0205  -0.0069  -0.0012  -0.0061  -0.0162  -0.0290
 700 C_l :2pz   -0.0000  -0.0130  -0.0188   0.0164   0.0309   0.0515   0.0531
 701 C_l :2px    0.0143  -0.0000   0.0000  -0.0000   0.0000   0.0000   0.0000
 702 C_l :2py    0.0147  -0.0000   0.0000   0.0000   0.0000   0.0000   0.0000
 703 C_l :2pz    0.0000   0.0139  -0.0072   0.0224  -0.0084   0.0101   0.0018
 715 C_l :3d1-   0.0000   0.0244   0.0573  -0.0037  -0.0555  -0.0488  -0.0240
 717 C_l :3d1+  -0.0000   0.0149  -0.0055   0.0020   0.0176   0.0274   0.0245
 718 C_l :3d2+  -0.0214   0.0000  -0.0000  -0.0000  -0.0000  -0.0000  -0.0000
 719 C_l :3d2-   0.0308   0.0000  -0.0000  -0.0000  -0.0000   0.0000  -0.0000
 720 C_l :3d1-   0.0000  -0.0100   0.0279  -0.0213  -0.0359  -0.0594  -0.0780
 722 C_l :3d1+  -0.0000   0.0034  -0.0095   0.0012   0.0066   0.0167   0.0191
 723 C_l :3d2+  -0.0224  -0.0000  -0.0000  -0.0000   0.0000  -0.0000   0.0000
 743 C_l :4f2+   0.0000  -0.0016   0.0148  -0.0031  -0.0206  -0.0232  -0.0198
 748 C_m :1s    -0.0208   0.0000  -0.0000  -0.0000  -0.0000  -0.0000  -0.0000
 749 C_m :1s    -0.0239  -0.0000   0.0000  -0.0000  -0.0000   0.0000  -0.0000
 750 C_m :1s    -0.0113  -0.0000  -0.0000   0.0000  -0.0000  -0.0000   0.0000
 753 C_m :2pz   -0.0000  -0.0614  -0.1159   0.0090   0.1722   0.2215   0.2552
 758 C_m :2py   -0.0101  -0.0000  -0.0000   0.0000  -0.0000  -0.0000   0.0000
 759 C_m :2pz    0.0000  -0.0290  -0.0334   0.0002   0.0257   0.0250   0.0238
 761 C_m :2py    0.0266   0.0000  -0.0000   0.0000  -0.0000  -0.0000  -0.0000
 762 C_m :2pz   -0.0000   0.0060  -0.0025   0.0039   0.0474   0.0900   0.1368
 765 C_m :2pz    0.0000   0.0014   0.0070  -0.0033  -0.0090  -0.0156  -0.0340
 777 C_m :3d1-   0.0000  -0.0207   0.0033  -0.0047  -0.0103  -0.0241  -0.0287
[...]
      ----------------------------------------------------------------
         1    1.79769D-01  0.00D+00  1.80D-01  9.17D+01    0.00000D+00
         2    1.85797D-01  0.00D+00  1.86D-01  9.53D+01    1.69000D-02
         3    2.06443D-01  0.00D+00  2.06D-01  1.07D+02    3.38000D-02

 ** RSPCTL MICROITERATION NUMBER    7

       No.  Residual tot.,    conf., and orb.    Bnorm      Frequency 
      ----------------------------------------------------------------
         1    5.33177D-02  0.00D+00  5.33D-02  9.17D+01    0.00000D+00
         2    5.55256D-02  0.00D+00  5.55D-02  9.53D+01    1.69000D-02
         3    6.32094D-02  0.00D+00  6.32D-02  1.07D+02    3.38000D-02

 *** THE REQUESTED    3 SOLUTION VECTORS CONVERGED

 Convergence of RSP solution vectors, threshold = 1.00D-03
 ---------------------------------------------------------------
 (dimension of paired reduced space:   42)
 RSP solution vector no.    1; norm of residual   5.81D-04
 RSP solution vector no.    2; norm of residual   5.83D-04
 RSP solution vector no.    3; norm of residual   5.89D-04

 *** RSPCTL MICROITERATIONS CONVERGED

@ QRLRVE: SINGLET SOLUTION FOR SYMMETRY    1  ( A  )    LABEL   YDIPLEN     FREQUENCY   0.000000D+00

@ QRLRVE:  << XDIPLEN  ; YDIPLEN  >> (   0.00000):    -231.272071373    

@ QRLRVE:  << YDIPLEN  ; YDIPLEN  >> (   0.00000):     1700.09991071    

@ QRLRVE:  << ZDIPLEN  ; YDIPLEN  >> (   0.00000):    1.014953147529E-13

@ QRLRVE: SINGLET SOLUTION FOR SYMMETRY    1  ( A  )    LABEL   YDIPLEN     FREQUENCY   0.169000D-01

@ QRLRVE:  << XDIPLEN  ; YDIPLEN  >> (   0.01690):    -237.858771319    

@ QRLRVE:  << YDIPLEN  ; YDIPLEN  >> (   0.01690):     1742.09159316    

@ QRLRVE:  << ZDIPLEN  ; YDIPLEN  >> (   0.01690):    1.041629420529E-13

@ QRLRVE: SINGLET SOLUTION FOR SYMMETRY    1  ( A  )    LABEL   YDIPLEN     FREQUENCY   0.338000D-01

@ QRLRVE:  << XDIPLEN  ; YDIPLEN  >> (   0.03380):    -260.092485992    

@ QRLRVE:  << YDIPLEN  ; YDIPLEN  >> (   0.03380):     1883.65156374    

@ QRLRVE:  << ZDIPLEN  ; YDIPLEN  >> (   0.03380):    1.132126275214E-13


 QRLRVE -- linear response calculation for symmetry  1  ( A  )
 QRLRVE -- operator label : ZDIPLEN 
 QRLRVE -- operator spin  :   0
 QRLRVE -- frequencies :  0.000000  0.016900  0.033800



 ---  SOLVING SETS OF LINEAR EQUATIONS FOR LINEAR RESPONSE PROPERTIES ---

 Operator symmetry = 1  ( A  ); triplet =   F


 ** RSPCTL MICROITERATION NUMBER    1

       No.  Residual tot.,    conf., and orb.    Bnorm      Frequency 
      ----------------------------------------------------------------
         1    3.92213D+00  0.00D+00  3.92D+00  1.01D+01    0.00000D+00
         2    3.92466D+00  0.00D+00  3.92D+00  1.01D+01    1.69000D-02
         3    3.93231D+00  0.00D+00  3.93D+00  1.02D+01    3.38000D-02

 ** RSPCTL MICROITERATION NUMBER    2

       No.  Residual tot.,    conf., and orb.    Bnorm      Frequency 
      ----------------------------------------------------------------
         1    9.74879D-01  0.00D+00  9.75D-01  1.06D+01    0.00000D+00
         2    9.76777D-01  0.00D+00  9.77D-01  1.06D+01    1.69000D-02
         3    9.82521D-01  0.00D+00  9.83D-01  1.07D+01    3.38000D-02

 ** RSPCTL MICROITERATION NUMBER    3

       No.  Residual tot.,    conf., and orb.    Bnorm      Frequency 
      ----------------------------------------------------------------
         1    1.93002D-01  0.00D+00  1.93D-01  1.06D+01    0.00000D+00
         2    1.93897D-01  0.00D+00  1.94D-01  1.06D+01    1.69000D-02
         3    1.96617D-01  0.00D+00  1.97D-01  1.07D+01    3.38000D-02

 ** RSPCTL MICROITERATION NUMBER    4

       No.  Residual tot.,    conf., and orb.    Bnorm      Frequency 
      ----------------------------------------------------------------
         1    5.89708D-02  0.00D+00  5.90D-02  1.06D+01    0.00000D+00
         2    5.96159D-02  0.00D+00  5.96D-02  1.06D+01    1.69000D-02
         3    6.16139D-02  0.00D+00  6.16D-02  1.07D+01    3.38000D-02

 ** RSPCTL MICROITERATION NUMBER    5

       No.  Residual tot.,    conf., and orb.    Bnorm      Frequency 
      ----------------------------------------------------------------
         1    2.10672D-02  0.00D+00  2.11D-02  1.06D+01    0.00000D+00
         2    2.15060D-02  0.00D+00  2.15D-02  1.06D+01    1.69000D-02
         3    2.28787D-02  0.00D+00  2.29D-02  1.07D+01    3.38000D-02

 ** RSPCTL MICROITERATION NUMBER    6

       No.  Residual tot.,    conf., and orb.    Bnorm      Frequency 
      ----------------------------------------------------------------
         1    7.81537D-03  0.00D+00  7.82D-03  1.06D+01    0.00000D+00
         2    8.03854D-03  0.00D+00  8.04D-03  1.06D+01    1.69000D-02
         3    8.74264D-03  0.00D+00  8.74D-03  1.07D+01    3.38000D-02

 *** THE REQUESTED    3 SOLUTION VECTORS CONVERGED

 Convergence of RSP solution vectors, threshold = 1.00D-03
 ---------------------------------------------------------------
 (dimension of paired reduced space:   36)
 RSP solution vector no.    1; norm of residual   7.38D-04
 RSP solution vector no.    2; norm of residual   7.57D-04
 RSP solution vector no.    3; norm of residual   8.17D-04

 *** RSPCTL MICROITERATIONS CONVERGED

@ QRLRVE: SINGLET SOLUTION FOR SYMMETRY    1  ( A  )    LABEL   ZDIPLEN     FREQUENCY   0.000000D+00

@ QRLRVE:  << XDIPLEN  ; ZDIPLEN  >> (   0.00000):    1.034576873425E-15

@ QRLRVE:  << YDIPLEN  ; ZDIPLEN  >> (   0.00000):    7.617641206296E-14

@ QRLRVE:  << ZDIPLEN  ; ZDIPLEN  >> (   0.00000):     160.556677981    

@ QRLRVE: SINGLET SOLUTION FOR SYMMETRY    1  ( A  )    LABEL   ZDIPLEN     FREQUENCY   0.169000D-01

@ QRLRVE:  << XDIPLEN  ; ZDIPLEN  >> (   0.01690):    1.537981660707E-15

@ QRLRVE:  << YDIPLEN  ; ZDIPLEN  >> (   0.01690):    7.808519487357E-14

@ QRLRVE:  << ZDIPLEN  ; ZDIPLEN  >> (   0.01690):     160.719743363    

@ QRLRVE: SINGLET SOLUTION FOR SYMMETRY    1  ( A  )    LABEL   ZDIPLEN     FREQUENCY   0.338000D-01

@ QRLRVE:  << XDIPLEN  ; ZDIPLEN  >> (   0.03380):    3.063224422083E-15

@ QRLRVE:  << YDIPLEN  ; ZDIPLEN  >> (   0.03380):    8.449601969548E-14

@ QRLRVE:  << ZDIPLEN  ; ZDIPLEN  >> (   0.03380):     161.212485377    
 
 ======================================================================
 ---  L I N E A R   R E S P O N S E   F U N C T I O N S --- 
 ======================================================================

 The -<<A;B>>(omega_b) functions from vectors generated
 in a *QUADRA calculation of <<A;B,C>>(omega_b,omega_c)

 Note: the accuracy of off-diagonal elements will be linear
 in the convergence threshold THCLR =  1.00D-03


 Perturbation symmetry.     KSYMOP:           1
 Perturbation spin symmetry.TRPLET:           F
 Orbital variables.         KZWOPT:      168302
 Configuration variables.   KZCONF:           0
 Total number of variables. KZVAR :      168302

@ Singlet linear response function in a.u.

@ A operator, symmetry, frequency:   XDIPLEN    1 -0.000000
@ B operator, symmetry, frequency:   XDIPLEN    1  0.000000

@ Value of linear response -<<A;B>>(omega):     257.667665884170

@ Singlet linear response function in a.u.

@ A operator, symmetry, frequency:   YDIPLEN    1 -0.000000
@ B operator, symmetry, frequency:   XDIPLEN    1  0.000000

@ Value of linear response -<<A;B>>(omega):    -231.314840976474

@ Singlet linear response function in a.u.

@ A operator, symmetry, frequency:   ZDIPLEN    1 -0.000000
@ B operator, symmetry, frequency:   XDIPLEN    1  0.000000

@ Value of linear response -<<A;B>>(omega):      -0.000000000000

@ Singlet linear response function in a.u.

@ A operator, symmetry, frequency:   XDIPLEN    1 -0.016900
@ B operator, symmetry, frequency:   XDIPLEN    1  0.016900

@ Value of linear response -<<A;B>>(omega):     258.971539072189

@ Singlet linear response function in a.u.

@ A operator, symmetry, frequency:   YDIPLEN    1 -0.016900
@ B operator, symmetry, frequency:   XDIPLEN    1  0.016900

@ Value of linear response -<<A;B>>(omega):    -237.903834125578

@ Singlet linear response function in a.u.

@ A operator, symmetry, frequency:   ZDIPLEN    1 -0.016900
@ B operator, symmetry, frequency:   XDIPLEN    1  0.016900

@ Value of linear response -<<A;B>>(omega):      -0.000000000000

@ Singlet linear response function in a.u.

@ A operator, symmetry, frequency:   XDIPLEN    1 -0.000000
@ B operator, symmetry, frequency:   YDIPLEN    1  0.000000

@ Value of linear response -<<A;B>>(omega):    -231.272071373266

@ Singlet linear response function in a.u.

@ A operator, symmetry, frequency:   YDIPLEN    1 -0.000000
@ B operator, symmetry, frequency:   YDIPLEN    1  0.000000

@ Value of linear response -<<A;B>>(omega):    1700.099910709826

@ Singlet linear response function in a.u.

@ A operator, symmetry, frequency:   ZDIPLEN    1 -0.000000
@ B operator, symmetry, frequency:   YDIPLEN    1  0.000000

@ Value of linear response -<<A;B>>(omega):       0.000000000000

@ Singlet linear response function in a.u.

@ A operator, symmetry, frequency:   XDIPLEN    1 -0.016900
@ B operator, symmetry, frequency:   YDIPLEN    1  0.016900

@ Value of linear response -<<A;B>>(omega):    -237.858771319430

@ Singlet linear response function in a.u.

@ A operator, symmetry, frequency:   YDIPLEN    1 -0.016900
@ B operator, symmetry, frequency:   YDIPLEN    1  0.016900

@ Value of linear response -<<A;B>>(omega):    1742.091593157739

@ Singlet linear response function in a.u.

@ A operator, symmetry, frequency:   ZDIPLEN    1 -0.016900
@ B operator, symmetry, frequency:   YDIPLEN    1  0.016900

@ Value of linear response -<<A;B>>(omega):       0.000000000000

@ Singlet linear response function in a.u.

@ A operator, symmetry, frequency:   XDIPLEN    1 -0.000000
@ B operator, symmetry, frequency:   ZDIPLEN    1  0.000000

@ Value of linear response -<<A;B>>(omega):       0.000000000000

@ Singlet linear response function in a.u.

@ A operator, symmetry, frequency:   YDIPLEN    1 -0.000000
@ B operator, symmetry, frequency:   ZDIPLEN    1  0.000000

@ Value of linear response -<<A;B>>(omega):       0.000000000000

@ Singlet linear response function in a.u.

@ A operator, symmetry, frequency:   ZDIPLEN    1 -0.000000
@ B operator, symmetry, frequency:   ZDIPLEN    1  0.000000

@ Value of linear response -<<A;B>>(omega):     160.556677981466

@ Singlet linear response function in a.u.

@ A operator, symmetry, frequency:   XDIPLEN    1 -0.016900
@ B operator, symmetry, frequency:   ZDIPLEN    1  0.016900

@ Value of linear response -<<A;B>>(omega):       0.000000000000

@ Singlet linear response function in a.u.

@ A operator, symmetry, frequency:   YDIPLEN    1 -0.016900
@ B operator, symmetry, frequency:   ZDIPLEN    1  0.016900

@ Value of linear response -<<A;B>>(omega):       0.000000000000

@ Singlet linear response function in a.u.

@ A operator, symmetry, frequency:   ZDIPLEN    1 -0.016900
@ B operator, symmetry, frequency:   ZDIPLEN    1  0.016900

@ Value of linear response -<<A;B>>(omega):     160.719743362558


  Results from quadratic response calculation
 --------------------------------------------

@ B-freq = 0.000000  C-freq = 0.000000     beta(X;X,X) =  -1253.91768731
@ B-freq = 0.000000  C-freq = 0.000000     beta(Y;X,X) =   5213.77123064
@ B-freq = 0.000000  C-freq = 0.000000     beta(Z;X,X) =      0.00000000
@ B-freq = 0.016900  C-freq = 0.000000     beta(X;X,X) =  -1308.77842084
@ B-freq = 0.016900  C-freq = 0.000000     beta(Y;X,X) =   5475.78427777
@ B-freq = 0.016900  C-freq = 0.000000     beta(Z;X,X) =      0.00000000
@ B-freq = 0.000000  C-freq = 0.000000     beta(X;Y,X) = beta(Y,X,X)
@ B-freq = 0.000000  C-freq = 0.000000     beta(X;Y,X) =   5213.77165274
@ B-freq = 0.000000  C-freq = 0.000000     beta(Y;Y,X) = -19580.44499893
@ B-freq = 0.000000  C-freq = 0.000000     beta(Z;Y,X) =     -0.00000000
@ B-freq = 0.016900  C-freq = 0.000000     beta(X;Y,X) =   5475.78471830
@ B-freq = 0.016900  C-freq = 0.000000     beta(Y;Y,X) = -20780.34687484
@ B-freq = 0.016900  C-freq = 0.000000     beta(Z;Y,X) =     -0.00000000
@ B-freq = 0.000000  C-freq = 0.000000     beta(X;Z,X) = beta(Z,X,X)
@ B-freq = 0.000000  C-freq = 0.000000     beta(Y;Z,X) = beta(Z,Y,X)
@ B-freq = 0.000000  C-freq = 0.000000     beta(X;Z,X) =      0.00000000
@ B-freq = 0.000000  C-freq = 0.000000     beta(Y;Z,X) =     -0.00000000
@ B-freq = 0.000000  C-freq = 0.000000     beta(Z;Z,X) =     11.18101408
@ B-freq = 0.016900  C-freq = 0.000000     beta(X;Z,X) =      0.00000000
@ B-freq = 0.016900  C-freq = 0.000000     beta(Y;Z,X) =     -0.00000000
@ B-freq = 0.016900  C-freq = 0.000000     beta(Z;Z,X) =     11.30550208
@ B-freq = 0.000000  C-freq = 0.016900     beta(X;X,X) = beta(X,X,X)
@ B-freq = 0.000000  C-freq = 0.016900     beta(Y;X,X) = beta(Y,X,X)
@ B-freq = 0.000000  C-freq = 0.016900     beta(Z;X,X) = beta(Z,X,X)
@ B-freq = 0.016900  C-freq = 0.016900     beta(X;X,X) =  -1431.88300253
@ B-freq = 0.016900  C-freq = 0.016900     beta(Y;X,X) =   6133.35751071
@ B-freq = 0.016900  C-freq = 0.016900     beta(Z;X,X) =      0.00000000
@ B-freq = 0.000000  C-freq = 0.016900     beta(X;Y,X) =   5420.31557641
@ B-freq = 0.000000  C-freq = 0.016900     beta(Y;Y,X) = -20520.68178610
@ B-freq = 0.000000  C-freq = 0.016900     beta(Z;Y,X) =     -0.00000000
@ B-freq = 0.016900  C-freq = 0.016900     beta(X;Y,X) =   5943.45552464
@ B-freq = 0.016900  C-freq = 0.016900     beta(Y;Y,X) = -23234.61283505
@ B-freq = 0.016900  C-freq = 0.016900     beta(Z;Y,X) =     -0.00000000
@ B-freq = 0.000000  C-freq = 0.016900     beta(X;Z,X) =      0.00000000
@ B-freq = 0.000000  C-freq = 0.016900     beta(Y;Z,X) =     -0.00000000
@ B-freq = 0.000000  C-freq = 0.016900     beta(Z;Z,X) =     11.26737902
@ B-freq = 0.016900  C-freq = 0.016900     beta(X;Z,X) =      0.00000000
@ B-freq = 0.016900  C-freq = 0.016900     beta(Y;Z,X) =     -0.00000000
@ B-freq = 0.016900  C-freq = 0.016900     beta(Z;Z,X) =     11.52584466
@ B-freq = 0.000000  C-freq = 0.000000     beta(X;X,Y) = beta(Y,X,X)
@ B-freq = 0.000000  C-freq = 0.000000     beta(Y;X,Y) = beta(Y,Y,X)
@ B-freq = 0.000000  C-freq = 0.000000     beta(Z;X,Y) = beta(Z,Y,X)
@ B-freq = 0.016900  C-freq = 0.000000     beta(X;X,Y) = beta(X,Y,X)
@ B-freq = 0.016900  C-freq = 0.000000     beta(Y;X,Y) = beta(Y,Y,X)
@ B-freq = 0.016900  C-freq = 0.000000     beta(Z;X,Y) = beta(Z,Y,X)
@ B-freq = 0.000000  C-freq = 0.000000     beta(X;Y,Y) = beta(Y,Y,X)
@ B-freq = 0.000000  C-freq = 0.000000     beta(X;Y,Y) = -19580.44769239
@ B-freq = 0.000000  C-freq = 0.000000     beta(Y;Y,Y) =  63586.06300717
@ B-freq = 0.000000  C-freq = 0.000000     beta(Z;Y,Y) =      0.00000000
@ B-freq = 0.016900  C-freq = 0.000000     beta(X;Y,Y) = -20520.68460049
@ B-freq = 0.016900  C-freq = 0.000000     beta(Y;Y,Y) =  67554.69833928
@ B-freq = 0.016900  C-freq = 0.000000     beta(Z;Y,Y) =      0.00000000
@ B-freq = 0.000000  C-freq = 0.000000     beta(X;Z,Y) = beta(Z,Y,X)
@ B-freq = 0.000000  C-freq = 0.000000     beta(Y;Z,Y) = beta(Z,Y,Y)
@ B-freq = 0.000000  C-freq = 0.000000     beta(X;Z,Y) =     -0.00000000
@ B-freq = 0.000000  C-freq = 0.000000     beta(Y;Z,Y) =      0.00000000
@ B-freq = 0.000000  C-freq = 0.000000     beta(Z;Z,Y) =    -37.32570861
@ B-freq = 0.016900  C-freq = 0.000000     beta(X;Z,Y) =     -0.00000000
@ B-freq = 0.016900  C-freq = 0.000000     beta(Y;Z,Y) =      0.00000000
@ B-freq = 0.016900  C-freq = 0.000000     beta(Z;Z,Y) =    -37.99208893
@ B-freq = 0.000000  C-freq = 0.016900     beta(X;X,Y) = beta(X,Y,X)
@ B-freq = 0.000000  C-freq = 0.016900     beta(Y;X,Y) = beta(Y,Y,X)
@ B-freq = 0.000000  C-freq = 0.016900     beta(Z;X,Y) = beta(Z,Y,X)
@ B-freq = 0.016900  C-freq = 0.016900     beta(X;X,Y) = beta(X,Y,X)
@ B-freq = 0.016900  C-freq = 0.016900     beta(Y;X,Y) = beta(Y,Y,X)
@ B-freq = 0.016900  C-freq = 0.016900     beta(Z;X,Y) = beta(Z,Y,X)
@ B-freq = 0.000000  C-freq = 0.016900     beta(X;Y,Y) = beta(X,Y,Y)
@ B-freq = 0.000000  C-freq = 0.016900     beta(Y;Y,Y) = beta(Y,Y,Y)
@ B-freq = 0.000000  C-freq = 0.016900     beta(Z;Y,Y) = beta(Z,Y,Y)
@ B-freq = 0.016900  C-freq = 0.016900     beta(X;Y,Y) = -22348.47091649
@ B-freq = 0.016900  C-freq = 0.016900     beta(Y;Y,Y) =  76650.33357520
@ B-freq = 0.016900  C-freq = 0.016900     beta(Z;Y,Y) =      0.00000000
@ B-freq = 0.000000  C-freq = 0.016900     beta(X;Z,Y) =     -0.00000000
@ B-freq = 0.000000  C-freq = 0.016900     beta(Y;Z,Y) =      0.00000000
@ B-freq = 0.000000  C-freq = 0.016900     beta(Z;Z,Y) =    -37.87629426
@ B-freq = 0.016900  C-freq = 0.016900     beta(X;Z,Y) =     -0.00000000
@ B-freq = 0.016900  C-freq = 0.016900     beta(Y;Z,Y) =      0.00000000
@ B-freq = 0.016900  C-freq = 0.016900     beta(Z;Z,Y) =    -39.26926296
@ B-freq = 0.000000  C-freq = 0.000000     beta(X;X,Z) = beta(Z,X,X)
@ B-freq = 0.000000  C-freq = 0.000000     beta(Y;X,Z) = beta(Z,Y,X)
@ B-freq = 0.000000  C-freq = 0.000000     beta(Z;X,Z) = beta(Z,Z,X)
@ B-freq = 0.016900  C-freq = 0.000000     beta(X;X,Z) = beta(X,Z,X)
@ B-freq = 0.016900  C-freq = 0.000000     beta(Y;X,Z) = beta(Y,Z,X)
@ B-freq = 0.016900  C-freq = 0.000000     beta(Z;X,Z) = beta(Z,Z,X)
@ B-freq = 0.000000  C-freq = 0.000000     beta(X;Y,Z) = beta(Z,Y,X)
@ B-freq = 0.000000  C-freq = 0.000000     beta(Y;Y,Z) = beta(Z,Y,Y)
@ B-freq = 0.000000  C-freq = 0.000000     beta(Z;Y,Z) = beta(Z,Z,Y)
@ B-freq = 0.016900  C-freq = 0.000000     beta(X;Y,Z) = beta(X,Z,Y)
@ B-freq = 0.016900  C-freq = 0.000000     beta(Y;Y,Z) = beta(Y,Z,Y)
@ B-freq = 0.016900  C-freq = 0.000000     beta(Z;Y,Z) = beta(Z,Z,Y)
@ B-freq = 0.000000  C-freq = 0.000000     beta(X;Z,Z) = beta(Z,Z,X)
@ B-freq = 0.000000  C-freq = 0.000000     beta(Y;Z,Z) = beta(Z,Z,Y)
@ B-freq = 0.000000  C-freq = 0.000000     beta(X;Z,Z) =     11.18099147
@ B-freq = 0.000000  C-freq = 0.000000     beta(Y;Z,Z) =    -37.32561460
@ B-freq = 0.000000  C-freq = 0.000000     beta(Z;Z,Z) =      0.00000000
@ B-freq = 0.016900  C-freq = 0.000000     beta(X;Z,Z) =     11.26735581
@ B-freq = 0.016900  C-freq = 0.000000     beta(Y;Z,Z) =    -37.87619650
@ B-freq = 0.016900  C-freq = 0.000000     beta(Z;Z,Z) =      0.00000000
@ B-freq = 0.000000  C-freq = 0.016900     beta(X;X,Z) = beta(X,Z,X)
@ B-freq = 0.000000  C-freq = 0.016900     beta(Y;X,Z) = beta(Y,Z,X)
@ B-freq = 0.000000  C-freq = 0.016900     beta(Z;X,Z) = beta(Z,Z,X)
@ B-freq = 0.016900  C-freq = 0.016900     beta(X;X,Z) = beta(X,Z,X)
@ B-freq = 0.016900  C-freq = 0.016900     beta(Y;X,Z) = beta(Y,Z,X)
@ B-freq = 0.016900  C-freq = 0.016900     beta(Z;X,Z) = beta(Z,Z,X)
@ B-freq = 0.000000  C-freq = 0.016900     beta(X;Y,Z) = beta(X,Z,Y)
@ B-freq = 0.000000  C-freq = 0.016900     beta(Y;Y,Z) = beta(Y,Z,Y)
@ B-freq = 0.000000  C-freq = 0.016900     beta(Z;Y,Z) = beta(Z,Z,Y)
@ B-freq = 0.016900  C-freq = 0.016900     beta(X;Y,Z) = beta(X,Z,Y)
@ B-freq = 0.016900  C-freq = 0.016900     beta(Y;Y,Z) = beta(Y,Z,Y)
@ B-freq = 0.016900  C-freq = 0.016900     beta(Z;Y,Z) = beta(Z,Z,Y)
@ B-freq = 0.000000  C-freq = 0.016900     beta(X;Z,Z) = beta(X,Z,Z)
@ B-freq = 0.000000  C-freq = 0.016900     beta(Y;Z,Z) = beta(Y,Z,Z)
@ B-freq = 0.000000  C-freq = 0.016900     beta(Z;Z,Z) = beta(Z,Z,Z)
@ B-freq = 0.016900  C-freq = 0.016900     beta(X;Z,Z) =     11.40740678
@ B-freq = 0.016900  C-freq = 0.016900     beta(Y;Z,Z) =    -38.90985467
@ B-freq = 0.016900  C-freq = 0.016900     beta(Z;Z,Z) =      0.00000000

  Total CPU  time used in RESPONSE:   3 hours 53 minutes 15 seconds
  Total wall time used in RESPONSE:   3 hours 54 minutes 27 seconds


                   .-------------------------------------------.
                   | End of Dynamic Property Section (RESPONS) |
                   `-------------------------------------------'

  Total CPU  time used in DALTON:   5 hours  3 minutes 29 seconds
  Total wall time used in DALTON:   5 hours  5 minutes  3 seconds

 
     Date and time (Linux)  : Sat May 31 01:32:28 2025
     Host name              : xm052                                   
