

     ************************************************************************
     *************** Dalton - An Electronic Structure Program ***************
     ************************************************************************

    This is output from DALTON release Dalton2020.0 (2020)
         ( Web site: http://daltonprogram.org )

   ----------------------------------------------------------------------------

    NOTE:
     
    Dalton is an experimental code for the evaluation of molecular
    properties using (MC)SCF, DFT, CI, and CC wave functions.
    The authors accept no responsibility for the performance of
    the code or for the correctness of the results.
     
    The code (in whole or part) is provided under a licence and
    is not to be reproduced for further distribution without
    the written permission of the authors or their representatives.
     
    See the home page "http://daltonprogram.org" for further information.
     
    If results obtained with this code are published,
    the appropriate citations would be both of:
     
       K. Aidas, C. Angeli, K. L. Bak, V. Bakken, R. Bast,
       L. Boman, O. Christiansen, R. Cimiraglia, S. Coriani,
       P. Dahle, E. K. Dalskov, U. Ekstroem,
       T. Enevoldsen, J. J. Eriksen, P. Ettenhuber, B. Fernandez,
       L. Ferrighi, H. Fliegl, L. Frediani, K. Hald, A. Halkier,
       C. Haettig, H. Heiberg, T. Helgaker, A. C. Hennum,
       H. Hettema, E. Hjertenaes, S. Hoest, I.-M. Hoeyvik,
       M. F. Iozzi, B. Jansik, H. J. Aa. Jensen, D. Jonsson,
       P. Joergensen, J. Kauczor, S. Kirpekar,
       T. Kjaergaard, W. Klopper, S. Knecht, R. Kobayashi, H. Koch,
       J. Kongsted, A. Krapp, K. Kristensen, A. Ligabue,
       O. B. Lutnaes, J. I. Melo, K. V. Mikkelsen, R. H. Myhre,
       C. Neiss, C. B. Nielsen, P. Norman, J. Olsen,
       J. M. H. Olsen, A. Osted, M. J. Packer, F. Pawlowski,
       T. B. Pedersen, P. F. Provasi, S. Reine, Z. Rinkevicius,
       T. A. Ruden, K. Ruud, V. Rybkin, P. Salek, C. C. M. Samson,
       A. Sanchez de Meras, T. Saue, S. P. A. Sauer,
       B. Schimmelpfennig, K. Sneskov, A. H. Steindal,
       K. O. Sylvester-Hvid, P. R. Taylor, A. M. Teale,
       E. I. Tellgren, D. P. Tew, A. J. Thorvaldsen, L. Thoegersen,
       O. Vahtras, M. A. Watson, D. J. D. Wilson, M. Ziolkowski
       and H. Agren,
       "The Dalton quantum chemistry program system",
       WIREs Comput. Mol. Sci. 2014, 4:269–284 (doi: 10.1002/wcms.1172)
     
    and
     
       Dalton, a molecular electronic structure program,
       Release Dalton2020.0 (2020), see http://daltonprogram.org
   ----------------------------------------------------------------------------

    Authors in alphabetical order (Major contribution(s) in parenthesis):

  Kestutis Aidas,           Vilnius University,           Lithuania   (QM/MM)
  Celestino Angeli,         University of Ferrara,        Italy       (NEVPT2)
  Keld L. Bak,              UNI-C,                        Denmark     (AOSOPPA, non-adiabatic coupling, magnetic properties)
  Vebjoern Bakken,          University of Oslo,           Norway      (DALTON; geometry optimizer, symmetry detection)
  Radovan Bast,             UiT The Arctic U. of Norway,  Norway      (DALTON installation and execution frameworks)
  Pablo Baudin,             University of Valencia,       Spain       (Cholesky excitation energies)
  Linus Boman,              NTNU,                         Norway      (Cholesky decomposition and subsystems)
  Bruno N. Cabral Tenorio,  Technical Univ. of Denmark,   Denmark     (Lanczos-based CC methods)
  Ove Christiansen,         Aarhus University,            Denmark     (CC module)
  Renzo Cimiraglia,         University of Ferrara,        Italy       (NEVPT2)
  Sonia Coriani,            Technical Univ. of Denmark,   Denmark     (CC and RESPONS modules)
  Janusz Cukras,            University of Warsaw,         Poland      (MChD in RESPONS)
  Paal Dahle,               University of Oslo,           Norway      (Parallelization)
  Erik K. Dalskov,          UNI-C,                        Denmark     (SOPPA)
  Thomas Enevoldsen,        Univ. of Southern Denmark,    Denmark     (SOPPA)
  Janus J. Eriksen,         Aarhus University,            Denmark     (Polarizable embedding, TDA)
  Rasmus Faber,             Technical Univ. of Denmark,   Denmark     (Vib.avg. NMR w. SOPPA, parallel AO-SOPPA, CVS-CC and EOMCC)
  Tobias Fahleson,          KTH Stockholm,                Sweden      (Damped cubic response)
  Berta Fernandez,          U. of Santiago de Compostela, Spain       (Doublet spin, ESR in RESPONS)
  Lara Ferrighi,            Aarhus University,            Denmark     (PCM Cubic response)
  Heike Fliegl,             University of Oslo,           Norway      (CCSD(R12))
  Luca Frediani,            UiT The Arctic U. of Norway,  Norway      (PCM)
  Emmanuel Fromager,        Univ. Strasbourg,             France      (MC-srDFT)
  Bin Gao,                  UiT The Arctic U. of Norway,  Norway      (Gen1Int library)
  Andre S. P. Gomes,        CNRS/Universite de Lille,     France      (Frozen density embedding)
  Christof Haettig,         Ruhr-University Bochum,       Germany     (CC module)
  Kasper Hald,              Aarhus University,            Denmark     (CC module)
  Asger Halkier,            Aarhus University,            Denmark     (CC module)
  Frederik Beyer Hansen,    University of Copenhagen,     Denmark     (Parallel AO-SOPPA)
  Erik D. Hedegaard,        Univ. of Southern Denmark,    Denmark     (Polarizable embedding, QM/MM, and MC-srDFT)
  Hanne Heiberg,            University of Oslo,           Norway      (Geometry analysis, selected one-electron integrals)
  Trygve Helgaker,          University of Oslo,           Norway      (DALTON; ABACUS, ERI, DFT modules, London, and much more)
  Alf Christian Hennum,     University of Oslo,           Norway      (Parity violation)
  Hinne Hettema,            University of Auckland,       New Zealand (Quadratic response in RESPONS; SIRIUS supersymmetry)
  Eirik Hjertenaes,         NTNU,                         Norway      (Cholesky decomposition)
  Pi A. B. Haase,           University of Copenhagen,     Denmark     (Triplet AO-SOPPA)
  Maria Francesca Iozzi,    University of Oslo,           Norway      (RPA)
  Christoph Jacob           TU Braunschweig               Germany     (Frozen density embedding)
  Brano Jansik              Technical Univ. of Ostrava    Czech Rep.  (DFT cubic response)
  Hans Joergen Aa. Jensen,  Univ. of Southern Denmark,    Denmark     (DALTON; SIRIUS, RESPONS, ABACUS, MC-srDFT, and much more)
  Dan Jonsson,              UiT The Arctic U. of Norway,  Norway      (Cubic response in RESPONS module)
  Poul Joergensen,          Aarhus University,            Denmark     (RESPONS, ABACUS, and CC modules)
  Maciej Kaminski,          University of Warsaw,         Poland      (CPPh in RESPONS)
  Joanna Kauczor,           Linkoeping University,        Sweden      (Complex polarization propagator (CPP) module)
  Sheela Kirpekar,          Univ. of Southern Denmark,    Denmark     (Mass-velocity & Darwin integrals)
  Erik Kjellgren,           Univ. of Southern Denmark,    Denmark     (MC-srDFT)
  Wim Klopper,              KIT Karlsruhe,                Germany     (R12 code in CC, SIRIUS, and ABACUS modules)
  Stefan Knecht,            ETH Zurich,                   Switzerland (Parallel CI and MCSCF, MC-srDFT)
  Rika Kobayashi,           Australian National Univ.,    Australia   (DIIS in CC, London in MCSCF)
  Henrik Koch,              NTNU,                         Norway      (CC module, Cholesky decomposition)
  Jacob Kongsted,           Univ. of Southern Denmark,    Denmark     (Polarizable embedding, polarizable density embedding, QM/MM)
  Andrea Ligabue,           University of Modena,         Italy       (CTOCD, AOSOPPA)
  Nanna H. List             Univ. of Southern Denmark,    Denmark     (Polarizable embedding)
  Ola B. Lutnaes,           University of Oslo,           Norway      (DFT Hessian)
  Juan I. Melo,             University of Buenos Aires,   Argentina   (LRESC, Relativistic Effects on NMR Shieldings)
  Kurt V. Mikkelsen,        University of Copenhagen,     Denmark     (MC-SCRF and QM/MM)
  Rolf H. Myhre,            NTNU,                         Norway      (Subsystems and CC3)
  Christian Neiss,          Univ. Erlangen-Nuernberg,     Germany     (CCSD(R12))
  Christian B. Nielsen,     University of Copenhagen,     Denmark     (QM/MM)
  Patrick Norman,           KTH Stockholm,                Sweden      (Cubic response and complex frequency response in RESPONS)
  Jeppe Olsen,              Aarhus University,            Denmark     (SIRIUS CI/density modules)
  Jogvan Magnus H. Olsen,   Aarhus University,            Denmark     (Polarizable embedding and polarizable density embedding)
  Anders Osted,             Copenhagen University,        Denmark     (QM/MM)
  Martin J. Packer,         University of Sheffield,      UK          (SOPPA)
  Filip Pawlowski,          Kazimierz Wielki University,  Poland      (CC3)
  Morten N. Pedersen,       Univ. of Southern Denmark,    Denmark     (Polarizable embedding)
  Thomas B. Pedersen,       University of Oslo,           Norway      (Cholesky decomposition)
  Patricio F. Provasi,      University of Northeastern,   Argentina   (Analysis of coupling constants in localized orbitals)
  Peter Reinholdt,          Univ. of Southern Denmark,    Denmark     (Polarizable embedding and polarizable density embedding)
  Zilvinas Rinkevicius,     KTH Stockholm,                Sweden      (open-shell DFT, ESR)
  Elias Rudberg,            KTH Stockholm,                Sweden      (DFT grid and basis info)
  Torgeir A. Ruden,         University of Oslo,           Norway      (Numerical derivatives in ABACUS)
  Kenneth Ruud,             UiT The Arctic U. of Norway,  Norway      (DALTON; ABACUS magnetic properties and much more)
  Pawel Salek,              KTH Stockholm,                Sweden      (DALTON; DFT code)
  Claire C. M. Samson       University of Karlsruhe       Germany     (Boys localization, r12 integrals in ERI)
  Alfredo Sanchez de Meras, University of Valencia,       Spain       (CC module, Cholesky decomposition)
  Trond Saue,               Paul Sabatier University,     France      (direct Fock matrix construction)
  Stephan P. A. Sauer,      University of Copenhagen,     Denmark     (SOPPA(CCSD), SOPPA prop., AOSOPPA, vibrational g-factors)
  Bernd Schimmelpfennig,    Forschungszentrum Karlsruhe,  Germany     (AMFI module)
  Anna K. Schnack-Petersen, University of Copenhagen,     Denmark     (RPA(D) and HRPA(D) properties in AOSOPPA)
  Kristian Sneskov,         Aarhus University,            Denmark     (Polarizable embedding, QM/MM)
  Arnfinn H. Steindal,      UiT The Arctic U. of Norway,  Norway      (parallel QM/MM, polarizable embedding)
  Casper Steinmann,         Aalborg University,           Denmark     (QFIT, polarizable embedding)
  K. O. Sylvester-Hvid,     University of Copenhagen,     Denmark     (MC-SCRF)
  Peter R. Taylor,          VLSCI/Univ. of Melbourne,     Australia   (Symmetry handling ABACUS, integral transformation)
  Andrew M. Teale,          University of Nottingham,     England     (DFT-AC, DFT-D)
  David P. Tew,             University of Bristol,        England     (CCSD(R12))
  Julien Toulouse,          Sorbonne Univ.,               France      (MC-srDFT)
  Olav Vahtras,             KTH Stockholm,                Sweden      (Triplet response, spin-orbit, ESR, TDDFT, open-shell DFT)
  Lucas Visscher,           Vrije Universiteit Amsterdam, Netherlands (Frozen density embedding)
  David J. Wilson,          La Trobe University,          Australia   (DFT Hessian and DFT magnetizabilities)
  Hans Agren,               KTH Stockholm,                Sweden      (SIRIUS module, RESPONS, MC-SCRF solvation)
 --------------------------------------------------------------------------------

     Date and time (Linux)  : Tue May 27 13:13:42 2025
     Host name              : xm059                                   

 * Work memory size             :   131072000 = 1000.00 megabytes.

 * Directories for basis set searches:
   1) /gpfs/projects/rjh/adrian/summer2025/beta_projects/raw_data/NLO/dalton/hf/n13/dipole
   2) /gpfs/projects/rjh/adrian/dalton/build/basis


Compilation information
-----------------------

 Who compiled             | ahurtado
 Host                     | milan2
 System                   | Linux-5.14.0-427.42.1.el9_4.x86_64
 CMake generator          | Unix Makefiles
 Processor                | x86_64
 64-bit integers          | OFF
 MPI                      | ON
 Fortran compiler         | /gpfs/software/openmpi/milan/gcc13.2/4.1.6/bin/mpi
                          | f90
 Fortran compiler version | GNU Fortran (GCC) 13.2.0
 C compiler               | /gpfs/software/openmpi/milan/gcc13.2/4.1.6/bin/mpi
                          | cc
 C compiler version       | gcc (GCC) 13.2.0
 C++ compiler             | /gpfs/software/openmpi/milan/gcc13.2/4.1.6/bin/mpi
                          | cxx
 C++ compiler version     | unknown
 BLAS                     | /gpfs/software/intel/oneAPI/2024_2/mkl/2024.2/lib/
                          | intel64/libmkl_gf_lp64.so;/gpfs/software/intel/one
                          | API/2024_2/mkl/2024.2/lib/intel64/libmkl_sequentia
                          | l.so;/gpfs/software/intel/oneAPI/2024_2/mkl/2024.2
                          | /lib/intel64/libmkl_core.so;/usr/lib64/libpthread.
                          | a;/usr/lib64/libm.so
 LAPACK                   | /gpfs/software/intel/oneAPI/2024_2/mkl/2024.2/lib/
                          | intel64/libmkl_lapack95_lp64.a;/gpfs/software/inte
                          | l/oneAPI/2024_2/mkl/2024.2/lib/intel64/libmkl_gf_l
                          | p64.so
 Static linking           | OFF
 Last Git revision        | 66052b3af5ea7225e31178bf9a8b031913c72190
 Git branch               | (HEAD detached at Dalton2020.0)
 Configuration time       | 2025-04-10 16:02:31.569498

 * MPI parallel run using 576 processes.


   Content of the .dal input file
 ----------------------------------

**DALTON INPUT
.RUN RESPONSE
.DIRECT
**WAVE FUNCTIONS
.HF
**PROPERTIES
**RESPONSE
*QUADRA
.DIPLEN
.FREQUENCIES
2
0.0 0.0157
**END OF DALTON INPUT


   Content of the .mol file
 ----------------------------

BASIS
aug-cc-pVDZ
blah
blah
Atomtype=4 Angstrom Charge=0 Nosymmetry
Charge=6 Atoms=26
C_a -1.7583020021988636 -1.0203010023650265 0.0
C_b -0.4366050026429676 -0.6337210000257919 0.0
C_c 0.0 0.7351749977332912 0.0
C_d 1.3230230012268485 1.1180229989613641 0.0
C_e 1.7644539994874566 2.485270001155418 0.0
C_f 3.0888209997021927 2.863549001678212 0.0
C_g 3.5364370000340233 4.228928997879985 0.0
C_h 4.862381001254277 4.6009619980744825 0.0
C_i 5.318678000265757 5.9639239983886805 0.0
C_j 6.646634002034016 6.326845000940754 0.0
C_k 7.1159720018910715 7.686323999188499 0.0
C_l 8.446706998948253 8.034876999079117 0.0
C_m 8.937708000363315 9.388409998142839 0.0
C_n 10.273052998776057 9.710211999929031 0.0
C_o 10.804856997493873 11.049894002466123 0.0
C_p 12.151374001053597 11.300641999023139 0.0
C_q -8.70121400052949 -8.127067998427126 0.0
C_r -7.3953789979033004 -7.711870002574732 0.0
C_s -6.988771998270566 -6.328530001723197 0.0
C_t -5.6752670006092565 -5.925904002246334 0.0
C_u -5.255487002167518 -4.549206000905155 0.0
C_v -3.9377879999394994 -4.15421500197447 0.0
C_w -3.5106020023894984 -2.781228998845891 0.0
C_x -2.190510002605337 -2.3909570011926213 0.0
C_y -10.357511999395172 -9.950730000858867 0.0
C_z -9.073369002529908 -9.525026001129755 0.0
Charge=7 Atoms=2
N_a 12.743751999600235 12.534732002110225 0.0
N_b -10.679787000939353 -11.373654002265976 0.0
Charge=8 Atoms=2
O_a -11.886295001905696 -11.646209000083564 0.0
O_b -9.758822001538523 -12.193259001707236 0.0
Charge=1 Atoms=28
H_a -2.5340560018134046 -0.24059700179561624 0.0
H_b 0.33803699985638774 -1.4148860006643689 0.0
H_c -0.7732929974950549 1.5173750002029012 0.0
H_d 2.095124000596009 0.33428100055872206 0.0
H_e 0.9938920009083159 3.2701870005119478 0.0
H_f 3.8578410023483016 2.0766910014800333 0.0
H_g 2.769390997720421 5.017283998072973 0.0
H_h 5.627201998609036 3.8098829999800783 0.0
H_i 4.556570999363134 6.757031999494869 0.0
H_j 7.405249999710761 5.529587001644696 0.0
H_k 6.361358002121917 8.486479000291457 0.0
H_l 9.195025001726245 7.22752000197438 0.0
H_m 8.196295998314309 10.200475000222552 0.0
H_n 11.000552000604657 8.88356500121564 0.0
H_o 10.099687998638469 11.892268999855936 0.0
H_p 12.855938002187587 10.459505001134142 0.0
H_q -9.50211899920136 -7.3752920024976545 0.0
H_r -6.602321998896677 -8.47388900130722 0.0
H_s -7.778012999867379 -5.5631559983079715 0.0
H_t -4.889834000554602 -6.696097000264702 0.0
H_u -6.037967997735994 -3.776555001202085 0.0
H_v -3.157412997375187 -4.929573002406951 0.0
H_w -4.289116999976026 -2.0043860001577403 0.0
H_x -1.413337998569996 -3.169558000659427 0.0
H_y -11.246298002495534 -9.316888999317012 0.0
H_z -8.28369200124568 -10.285983999554848 0.0
H_{ 12.185428999358924 13.377295000287672 0.0
H_| 13.747297002472301 12.629961997386074 0.0


       *******************************************************************
       *********** Output from DALTON general input processing ***********
       *******************************************************************

 --------------------------------------------------------------------------------
   Overall default print level:    0
   Print level for DALTON.STAT:    1

    Parallel calculation using MPI
    AO-direct calculation (in sections where implemented)
    HERMIT 1- and 2-electron integral sections will be executed
    "Old" integral transformation used (limited to max 255 basis functions)
    Wave function sections will be executed (SIRIUS module)
    Dynamic molecular response properties section will be executed (RESPONSE module)
 --------------------------------------------------------------------------------


   ****************************************************************************
   *************** Output of molecule and basis set information ***************
   ****************************************************************************


    The two title cards from your ".mol" input:
    ------------------------------------------------------------------------
 1: blah                                                                    
 2: blah                                                                    
    ------------------------------------------------------------------------

  Coordinates are entered in Angstrom and converted to atomic units.
          - Conversion factor : 1 bohr = 0.52917721 A

  Atomic type no.    1
  --------------------
  Nuclear charge:   6.00000
  Number of symmetry independent centers:   26
  Number of basis sets to read;    2
  Basis set file used for this atomic type with Z =   6 :
     "/gpfs/projects/rjh/adrian/dalton/build/basis/aug-cc-pVDZ"

  Atomic type no.    2
  --------------------
  Nuclear charge:   7.00000
  Number of symmetry independent centers:    2
  Number of basis sets to read;    2
  Basis set file used for this atomic type with Z =   7 :
     "/gpfs/projects/rjh/adrian/dalton/build/basis/aug-cc-pVDZ"

  Atomic type no.    3
  --------------------
  Nuclear charge:   8.00000
  Number of symmetry independent centers:    2
  Number of basis sets to read;    2
  Basis set file used for this atomic type with Z =   8 :
     "/gpfs/projects/rjh/adrian/dalton/build/basis/aug-cc-pVDZ"

  Atomic type no.    4
  --------------------
  Nuclear charge:   1.00000
  Number of symmetry independent centers:   28
  Number of basis sets to read;    2
  Basis set file used for this atomic type with Z =   1 :
     "/gpfs/projects/rjh/adrian/dalton/build/basis/aug-cc-pVDZ"


                         SYMGRP: Point group information
                         -------------------------------

@    Point group: C1 


                                 Isotopic Masses
                                 ---------------

                           C_a        12.000000
                           C_b        12.000000
                           C_c        12.000000
                           C_d        12.000000
                           C_e        12.000000
                           C_f        12.000000
                           C_g        12.000000
                           C_h        12.000000
                           C_i        12.000000
                           C_j        12.000000
                           C_k        12.000000
                           C_l        12.000000
                           C_m        12.000000
                           C_n        12.000000
                           C_o        12.000000
                           C_p        12.000000
                           C_q        12.000000
                           C_r        12.000000
                           C_s        12.000000
                           C_t        12.000000
                           C_u        12.000000
                           C_v        12.000000
                           C_w        12.000000
                           C_x        12.000000
                           C_y        12.000000
                           C_z        12.000000
                           N_a        14.003074
                           N_b        14.003074
                           O_a        15.994915
                           O_b        15.994915
                           H_a         1.007825
                           H_b         1.007825
                           H_c         1.007825
                           H_d         1.007825
                           H_e         1.007825
                           H_f         1.007825
                           H_g         1.007825
                           H_h         1.007825
                           H_i         1.007825
                           H_j         1.007825
                           H_k         1.007825
                           H_l         1.007825
                           H_m         1.007825
                           H_n         1.007825
                           H_o         1.007825
                           H_p         1.007825
                           H_q         1.007825
                           H_r         1.007825
                           H_s         1.007825
                           H_t         1.007825
                           H_u         1.007825
                           H_v         1.007825
                           H_w         1.007825
                           H_x         1.007825
                           H_y         1.007825
                           H_z         1.007825
                           H_{         1.007825
                           H_|         1.007825

                       Total mass:   400.215078 amu
                       Natural abundance:  73.786 %

 Center-of-mass coordinates (a.u.):   -0.209225   -0.225325    0.000000
 Center-of-mass coordinates (Angs):   -0.110717   -0.119237    0.000000


  Atoms and basis sets
  --------------------

  Number of atom types :    4
  Total number of atoms:   58

  Basis set used is "aug-cc-pVDZ" from the basis set library.

  label    atoms   charge   prim   cont     basis
  ----------------------------------------------------------------------
  C_         26    6.0000    35    23      [10s5p2d|4s3p2d]                                   
  N_          2    7.0000    35    23      [10s5p2d|4s3p2d]                                   
  O_          2    8.0000    35    23      [10s5p2d|4s3p2d]                                   
  H_         28    1.0000    11     9      [5s2p|3s2p]                                        
  ----------------------------------------------------------------------
  total:     58  214.0000  1358   942
  ----------------------------------------------------------------------
  Spherical harmonic basis used.

  Threshold for neglecting AO integrals:  1.00D-12

  Max    interatomic separation is   35.3046 Angstrom (   66.7160 Bohr)
  between atoms   58 and   29, "H_|   " and "O_a   ".

  Min HX interatomic separation is    1.0081 Angstrom (    1.9049 Bohr)

  Min YX interatomic separation is    1.2329 Angstrom (    2.3298 Bohr)


  Bond distances (Angstrom):
  --------------------------

                  atom 1     atom 2       distance
                  ------     ------       --------
  bond distance:  C_b        C_a          1.377072
  bond distance:  C_c        C_b          1.436837
  bond distance:  C_d        C_c          1.377303
  bond distance:  C_e        C_d          1.436741
  bond distance:  C_f        C_e          1.377332
  bond distance:  C_g        C_f          1.436879
  bond distance:  C_h        C_g          1.377148
  bond distance:  C_i        C_h          1.437314
  bond distance:  C_j        C_i          1.376655
  bond distance:  C_k        C_j          1.438215
  bond distance:  C_l        C_k          1.375625
  bond distance:  C_m        C_l          1.439838
  bond distance:  C_n        C_m          1.373573
  bond distance:  C_o        C_n          1.441376
  bond distance:  C_p        C_o          1.369665
  bond distance:  C_r        C_q          1.370253
  bond distance:  C_s        C_r          1.441859
  bond distance:  C_t        C_s          1.373828
  bond distance:  C_u        C_t          1.439275
  bond distance:  C_v        C_u          1.375627
  bond distance:  C_w        C_v          1.437908
  bond distance:  C_x        C_a          1.437185
  bond distance:  C_x        C_w          1.376574
  bond distance:  C_z        C_q          1.446646
  bond distance:  C_z        C_y          1.352866
  bond distance:  N_a        C_p          1.368901
  bond distance:  N_b        C_y          1.458963
  bond distance:  O_a        N_b          1.236911
  bond distance:  O_b        N_b          1.232854
  bond distance:  H_a        C_a          1.099878
  bond distance:  H_b        C_b          1.100131
  bond distance:  H_c        C_c          1.099918
  bond distance:  H_d        C_d          1.100178
  bond distance:  H_e        C_e          1.099937
  bond distance:  H_f        C_f          1.100244
  bond distance:  H_g        C_g          1.099938
  bond distance:  H_h        C_h          1.100344
  bond distance:  H_i        C_i          1.099922
  bond distance:  H_j        C_j          1.100508
  bond distance:  H_k        C_k          1.099859
  bond distance:  H_l        C_l          1.100820
  bond distance:  H_m        C_m          1.099610
  bond distance:  H_n        C_n          1.101181
  bond distance:  H_o        C_o          1.098571
  bond distance:  H_p        C_p          1.097234
  bond distance:  H_q        C_q          1.098461
  bond distance:  H_r        C_r          1.099824
  bond distance:  H_s        C_s          1.099408
  bond distance:  H_t        C_t          1.100046
  bond distance:  H_u        C_u          1.099666
  bond distance:  H_v        C_v          1.100075
  bond distance:  H_w        C_w          1.099805
  bond distance:  H_x        C_x          1.100098
  bond distance:  H_y        C_y          1.091648
  bond distance:  H_z        C_z          1.096653
  bond distance:  H_{        N_a          1.010761
  bond distance:  H_|        N_a          1.008053


  Bond angles (degrees):
  ----------------------

                  atom 1     atom 2     atom 3         angle
                  ------     ------     ------         -----
  bond angle:     C_b        C_a        C_x          123.805
  bond angle:     C_b        C_a        H_a          118.551
  bond angle:     C_x        C_a        H_a          117.644
  bond angle:     C_a        C_b        C_c          123.993
  bond angle:     C_a        C_b        H_b          118.456
  bond angle:     C_c        C_b        H_b          117.550
  bond angle:     C_b        C_c        C_d          123.829
  bond angle:     C_b        C_c        H_c          117.638
  bond angle:     C_d        C_c        H_c          118.533
  bond angle:     C_c        C_d        C_e          124.032
  bond angle:     C_c        C_d        H_d          118.432
  bond angle:     C_e        C_d        H_d          117.535
  bond angle:     C_d        C_e        C_f          123.834
  bond angle:     C_d        C_e        H_e          117.635
  bond angle:     C_f        C_e        H_e          118.530
  bond angle:     C_e        C_f        C_g          124.092
  bond angle:     C_e        C_f        H_f          118.402
  bond angle:     C_g        C_f        H_f          117.506
  bond angle:     C_f        C_g        C_h          123.824
  bond angle:     C_f        C_g        H_g          117.634
  bond angle:     C_h        C_g        H_g          118.542
  bond angle:     C_g        C_h        C_i          124.183
  bond angle:     C_g        C_h        H_h          118.360
  bond angle:     C_i        C_h        H_h          117.457
  bond angle:     C_h        C_i        C_j          123.795
  bond angle:     C_h        C_i        H_i          117.632
  bond angle:     C_j        C_i        H_i          118.573
  bond angle:     C_i        C_j        C_k          124.332
  bond angle:     C_i        C_j        H_j          118.292
  bond angle:     C_k        C_j        H_j          117.376
  bond angle:     C_j        C_k        C_l          123.724
  bond angle:     C_j        C_k        H_k          117.631
  bond angle:     C_l        C_k        H_k          118.645
  bond angle:     C_k        C_l        C_m          124.616
  bond angle:     C_k        C_l        H_l          118.149
  bond angle:     C_m        C_l        H_l          117.235
  bond angle:     C_l        C_m        C_n          123.488
  bond angle:     C_l        C_m        H_m          117.666
  bond angle:     C_n        C_m        H_m          118.847
  bond angle:     C_m        C_n        C_o          125.200
  bond angle:     C_m        C_n        H_n          117.800
  bond angle:     C_o        C_n        H_n          116.999
  bond angle:     C_n        C_o        C_p          122.200
  bond angle:     C_n        C_o        H_o          118.415
  bond angle:     C_p        C_o        H_o          119.385
  bond angle:     C_o        C_p        N_a          126.190
  bond angle:     C_o        C_p        H_p          119.402
  bond angle:     N_a        C_p        H_p          114.408
  bond angle:     C_r        C_q        C_z          122.546
  bond angle:     C_r        C_q        H_q          119.174
  bond angle:     C_z        C_q        H_q          118.281
  bond angle:     C_q        C_r        C_s          124.018
  bond angle:     C_q        C_r        H_r          118.505
  bond angle:     C_s        C_r        H_r          117.477
  bond angle:     C_r        C_s        C_t          123.421
  bond angle:     C_r        C_s        H_s          117.741
  bond angle:     C_t        C_s        H_s          118.838
  bond angle:     C_s        C_t        C_u          123.999
  bond angle:     C_s        C_t        H_t          118.520
  bond angle:     C_u        C_t        H_t          117.481
  bond angle:     C_t        C_u        C_v          123.644
  bond angle:     C_t        C_u        H_u          117.680
  bond angle:     C_v        C_u        H_u          118.676
  bond angle:     C_u        C_v        C_w          123.969
  bond angle:     C_u        C_v        H_v          118.498
  bond angle:     C_w        C_v        H_v          117.532
  bond angle:     C_v        C_w        C_x          123.753
  bond angle:     C_v        C_w        H_w          117.656
  bond angle:     C_x        C_w        H_w          118.592
  bond angle:     C_a        C_x        C_w          123.971
  bond angle:     C_a        C_x        H_x          117.551
  bond angle:     C_w        C_x        H_x          118.478
  bond angle:     C_z        C_y        N_b          121.102
  bond angle:     C_z        C_y        H_y          126.165
  bond angle:     N_b        C_y        H_y          112.733
  bond angle:     C_q        C_z        C_y          123.248
  bond angle:     C_q        C_z        H_z          119.032
  bond angle:     C_y        C_z        H_z          117.720
  bond angle:     C_p        N_a        H_{          120.828
  bond angle:     C_p        N_a        H_|          121.062
  bond angle:     H_{        N_a        H_|          118.110
  bond angle:     C_y        N_b        O_a          115.491
  bond angle:     C_y        N_b        O_b          118.906
  bond angle:     O_a        N_b        O_b          125.603




 Principal moments of inertia (u*A**2) and principal axes
 --------------------------------------------------------

   IA     148.143465          0.703374    0.710820    0.000000
   IB   46570.622979          0.710820   -0.703374    0.000000
   IC   46718.766444          0.000000    0.000000    1.000000


 Rotational constants
 --------------------

@    The molecule is planar.

               A                   B                   C

           3411.4161             10.8519             10.8175 MHz
            0.113793            0.000362            0.000361 cm-1


@  Nuclear repulsion energy : 1902.014739146232 Hartree


                     .---------------------------------------.
                     | Starting in Integral Section (HERMIT) |
                     `---------------------------------------'



 ***************************************************************************************
 ****************** Output from **INTEGRALS input processing (HERMIT) ******************
 ***************************************************************************************


 - Using defaults, no **INTEGRALS input found

 Default print level:        1

 Calculation of one-electron Hamiltonian integrals.

 Center of mass  (bohr):     -0.209224920491     -0.225324994836      0.000000000000
 Operator center (bohr):      0.000000000000      0.000000000000      0.000000000000
 Gauge origin    (bohr):      0.000000000000      0.000000000000      0.000000000000
 Dipole origin   (bohr):      0.000000000000      0.000000000000      0.000000000000


     ************************************************************************
     ************************** Output from HERINT **************************
     ************************************************************************



                      Nuclear contribution to dipole moments
                      --------------------------------------

                 au               Debye          C m (/(10**-30)

      x     -0.00000204        -0.00000519        -0.00001730
      y      0.00000730         0.00001855         0.00006189
      z      0.00000000         0.00000000         0.00000000


  Time used in ONEDRV     is       2.42 seconds
  Time used in HUCKEL     is       0.53 seconds
  Time used in OVERLAP    is       0.24 seconds
  Time used in POPOVLP    is       0.47 seconds
  Time used in R2         is       0.29 seconds
  Time used in R4         is       0.34 seconds
  Time used in DIPLEN     is       0.31 seconds
  Time used in QUADRUP    is       0.60 seconds
  Time used in KINENE     is       0.43 seconds
  Time used in GABGEN     is       1.50 seconds
  Total CPU  time used in HERMIT:   7.13 seconds
  Total wall time used in HERMIT:   7.26 seconds


                        .----------------------------------.
                        | End of Integral Section (HERMIT) |
                        `----------------------------------'



                   .--------------------------------------------.
                   | Starting in Wave Function Section (SIRIUS) |
                   `--------------------------------------------'



@ Primary orbitals are deleted during canonical orthonormalization
@   because of detected numerical linear dependence or too large coefficients.
@ Eigenvalue threshold for num. lin. dep. =  1.00D-06

@   2 MO components are deleted in symmetry    1
 Overlap eigenvalues of the deleted orbitals:
  5.43D-07  1.30D-07

 Max MO coeff. of last deleted MO & limit:  2.83D+02  1.00D+03

WARNING: Orbitals have been deleted because of numerical
   linear dependence although not requested in input.

 *** Output from Huckel module :

     Using EWMO model:          T
     Using EHT  model:          F
     Number of Huckel orbitals each symmetry:  178

 EWMO - Energy Weighted Maximum Overlap - is a Huckel type method,
        which normally is better than Extended Huckel Theory.
 Reference: Linderberg and Ohrn, Propagators in Quantum Chemistry (Wiley, 1973)

 Huckel EWMO eigenvalues for symmetry :  1
          -20.684753     -20.683497     -15.677080     -15.674961     -11.359404
          -11.359365     -11.359184     -11.359064     -11.358855     -11.358810
          -11.358234     -11.357311     -11.356156     -11.354849     -11.353477
          -11.352135     -11.350960     -11.348614     -11.347868     -11.347103
          -11.346452     -11.345949     -11.345603     -11.345492     -11.345423
          -11.345399     -11.345297     -11.345276     -11.345189     -11.345186
           -1.964018      -1.792796      -1.789984      -1.782779      -1.768251
           -1.743648      -1.706915      -1.657309      -1.595577      -1.523908
           -1.453302      -1.434018      -1.357003      -1.270982      -1.211334
           -1.190833      -1.185339      -1.157595      -1.118868      -1.097806
           -1.068382      -1.014478      -1.014053      -0.957876      -0.940668
           -0.900946      -0.875538      -0.852017      -0.847595      -0.824641
           -0.813952      -0.783946      -0.768225      -0.749488      -0.743965
           -0.739485      -0.712990      -0.694160      -0.677906      -0.677145
           -0.657331      -0.641999      -0.638160      -0.621252      -0.601881
           -0.597783      -0.589179      -0.585328      -0.560978      -0.556184
           -0.551679      -0.537864      -0.529388      -0.515984      -0.512235
           -0.510069      -0.497873      -0.494645      -0.491708      -0.490432
           -0.485875      -0.484707      -0.478950      -0.478471      -0.477421
           -0.476147      -0.474461      -0.473900      -0.446470      -0.441362
           -0.417824      -0.408465      -0.393259      -0.379179      -0.374507
           -0.362710      -0.353825      -0.335893      -0.305861      -0.285770
           -0.267781      -0.252161      -0.238848      -0.229131      -0.227701
           -0.218538      -0.211157      -0.205347      -0.200907      -0.200900
           -0.197656      -0.195443      -0.194159      -0.190593      -0.166745
           -0.142716      -0.139014      -0.135399      -0.132960      -0.131698
           -0.131513      -0.130879      -0.130156      -0.129971      -0.129786
           -0.129654      -0.129161      -0.128919      -0.128447      -0.127890
           -0.127345      -0.127221      -0.126533      -0.126340      -0.126260
           -0.125804      -0.125091      -0.124899      -0.124231      -0.123907
           -0.123616      -0.123183      -0.112560      -0.112184      -0.108954
           -0.107865      -0.104736      -0.103015      -0.100749      -0.098365
           -0.096598      -0.094649      -0.093050      -0.091766      -0.090072
           -0.089493      -0.087921      -0.087538      -0.086389      -0.086007
           -0.085117      -0.085055      -0.083916      -0.082759      -0.081627
           -0.080582      -0.079757      -0.079336

 **********************************************************************
 *SIRIUS* a direct, restricted step, second order MCSCF program       *
 **********************************************************************

 
     Date and time (Linux)  : Tue May 27 13:14:38 2025
     Host name              : xm059                                   

 Title lines from ".mol" input file:
     blah                                                                    
     blah                                                                    

 Print level on unit LUPRI =   2 is   0
 Print level on unit LUW4  =   2 is   5

@    Restricted, closed shell Hartree-Fock calculation.

@    Time-dependent Hartree-Fock calculation (random phase approximation).
 Fock matrices are calculated directly and in parallel without use of integrals on disk.

 Initial molecular orbitals are obtained according to
 ".MOSTART EWMO  " input option

     Wave function specification
     ============================
@    Wave function type        --- HF ---
@    Number of closed shell electrons         214
@    Number of electrons in active shells       0
@    Total charge of the molecule               0

@    Spin multiplicity and 2 M_S                1         0
@    Total number of symmetries                 1 (point group: C1 )
@    Reference state symmetry                   1 (irrep name : A  )

     Orbital specifications
     ======================
@    Abelian symmetry species          All |    1
@                                          |  A  
                                       --- |  ---
@    Occupied SCF orbitals             107 |  107
@    Secondary orbitals                833 |  833
@    Total number of orbitals          940 |  940
@    Number of basis functions         942 |  942

     Optimization information
     ========================
@    Number of configurations                 1
@    Number of orbital rotations          89131
     ------------------------------------------
@    Total number of variables            89132

     Maximum number of Fock   iterations      0
     Maximum number of DIIS   iterations     60
     Maximum number of QC-SCF iterations     60
     Threshold for SCF convergence     1.00D-05

    INFORMATION: Switched to "new" integral transformation (from 1988 ;-) )
    because more than 255 basis functions.


 ***********************************************
 ***** DIIS acceleration of SCF iterations *****
 ***********************************************

 C1-DIIS algorithm; max error vectors =    8

 Iter      Total energy        Error norm    Delta(E)  DIIS dim.
 -----------------------------------------------------------------------------
   1  Screening settings (-IFTHRS, JTDIIS, DIFDEN, times)   -9    1    T  8.89D+00  8.95D+00
@  1    -1254.78099182        7.84240D+00   -1.25D+03    1
      Virial theorem: -V/T =      2.012813
@    MULPOP   C_a     0.25; C_b     0.31; C_c     0.25; C_d     0.31; C_e     0.25; C_f     0.30; C_g     0.23; C_h     0.29; C_i     0.22; C_j     0.32; 
@             C_k     0.20; C_l     0.37; C_m     0.19; C_n     0.31; C_o    -0.18; C_p     0.83; C_q     0.22; C_r     0.38; C_s     0.26; C_t     0.30; 
@             C_u     0.28; C_v     0.31; C_w     0.24; C_x     0.31; C_y     0.75; C_z     0.06; N_a    -0.24; N_b     0.96; O_a    -1.16; O_b    -1.16; 
@    MULPOP    dipole moment & components:     35.8457;       23.9903     26.6343      0.0000
   1  Level shift: doubly occupied orbital energies shifted by -2.00D-01
 -----------------------------------------------------------------------------
   2  Screening settings (-IFTHRS, JTDIIS, DIFDEN, times)   -9    2    T  4.29D+00  4.29D+00
@  2    -1258.75140116        2.91465D+00   -3.97D+00    2
      Virial theorem: -V/T =      2.000931
@    MULPOP   C_a     0.61; C_b     0.60; C_c     0.63; C_d     0.56; C_e     0.66; C_f     0.56; C_g     0.63; C_h     0.57; C_i     0.65; C_j     0.58; 
@             C_k     0.67; C_l     0.57; C_m     0.81; C_n     0.37; C_o     0.71; C_p     0.68; C_q     0.71; C_r     0.55; C_s     0.67; C_t     0.56; 
@             C_u     0.64; C_v     0.55; C_w     0.65; C_x     0.57; C_y     0.72; C_z     0.50; N_a    -0.17; N_b     0.32; O_a    -0.41; O_b    -0.52; 
@    MULPOP    dipole moment & components:     14.4075;        8.5727     11.5795      0.0000
   2  Level shift: doubly occupied orbital energies shifted by -1.00D-01
 -----------------------------------------------------------------------------
   3  Screening settings (-IFTHRS, JTDIIS, DIFDEN, times)   -9    3    T  4.12D+00  4.12D+00
@  3    -1259.24653129        1.02761D+00   -4.95D-01    3
      Virial theorem: -V/T =      2.001324
@    MULPOP   C_a     0.67; C_b     0.61; C_c     0.66; C_d     0.58; C_e     0.70; C_f     0.58; C_g     0.66; C_h     0.58; C_i     0.69; C_j     0.58; 
@             C_k     0.72; C_l     0.60; C_m     0.78; C_n     0.39; C_o     0.75; C_p     0.89; C_q     0.72; C_r     0.52; C_s     0.74; C_t     0.61; 
@             C_u     0.68; C_v     0.59; C_w     0.70; C_x     0.57; C_y     1.27; C_z     0.57; N_a    -0.30; N_b     0.79; O_a    -0.95; O_b    -0.87; 
@    MULPOP    dipole moment & components:     12.5237;        6.7055     10.5773      0.0000
   3  Level shift: doubly occupied orbital energies shifted by -5.00D-02
 -----------------------------------------------------------------------------
   4  Screening settings (-IFTHRS, JTDIIS, DIFDEN, times)   -9    4    T  4.05D+00  4.05D+00
@  4    -1259.32226743        3.14629D-01   -7.57D-02    4
      Virial theorem: -V/T =      2.002709
@    MULPOP   C_a     0.67; C_b     0.60; C_c     0.67; C_d     0.56; C_e     0.72; C_f     0.56; C_g     0.67; C_h     0.57; C_i     0.70; C_j     0.56; 
@             C_k     0.74; C_l     0.58; C_m     0.82; C_n     0.35; C_o     0.76; C_p     0.91; C_q     0.73; C_r     0.53; C_s     0.75; C_t     0.63; 
@             C_u     0.69; C_v     0.59; C_w     0.71; C_x     0.57; C_y     1.21; C_z     0.55; N_a    -0.33; N_b     0.56; O_a    -0.80; O_b    -0.82; 
@    MULPOP    dipole moment & components:     11.5227;        5.7968      9.9584      0.0000
   4  Level shift: doubly occupied orbital energies shifted by -2.50D-02
 -----------------------------------------------------------------------------
   5  Screening settings (-IFTHRS, JTDIIS, DIFDEN, times)  -13    5    F  5.17D+00  5.18D+00
@  5    -1259.33831484        1.33401D-01   -1.60D-02    5
      Virial theorem: -V/T =      2.002169
@    MULPOP   C_a     0.66; C_b     0.59; C_c     0.67; C_d     0.54; C_e     0.72; C_f     0.54; C_g     0.67; C_h     0.55; C_i     0.70; C_j     0.55; 
@             C_k     0.75; C_l     0.56; C_m     0.83; C_n     0.33; C_o     0.76; C_p     0.88; C_q     0.77; C_r     0.46; C_s     0.78; C_t     0.59; 
@             C_u     0.69; C_v     0.56; C_w     0.71; C_x     0.55; C_y     1.27; C_z     0.46; N_a    -0.34; N_b     0.60; O_a    -0.84; O_b    -0.81; 
@    MULPOP    dipole moment & components:     10.5963;        4.8677      9.4120      0.0000
   5  Level shift: doubly occupied orbital energies shifted by -1.25D-02
 -----------------------------------------------------------------------------
   6  Screening settings (-IFTHRS, JTDIIS, DIFDEN, times)  -13    6    T  4.97D+00  4.97D+00
@  6    -1259.34305160        7.13399D-02   -4.74D-03    6
      Virial theorem: -V/T =      2.002041
@    MULPOP   C_a     0.68; C_b     0.57; C_c     0.67; C_d     0.54; C_e     0.71; C_f     0.53; C_g     0.67; C_h     0.54; C_i     0.70; C_j     0.54; 
@             C_k     0.74; C_l     0.55; C_m     0.83; C_n     0.33; C_o     0.75; C_p     0.88; C_q     0.79; C_r     0.44; C_s     0.80; C_t     0.56; 
@             C_u     0.71; C_v     0.54; C_w     0.72; C_x     0.53; C_y     1.26; C_z     0.44; N_a    -0.34; N_b     0.58; O_a    -0.82; O_b    -0.81; 
@    MULPOP    dipole moment & components:     10.0652;        4.2901      9.1051      0.0000
   6  Level shift: doubly occupied orbital energies shifted by -1.25D-02
 -----------------------------------------------------------------------------
   7  Screening settings (-IFTHRS, JTDIIS, DIFDEN, times)  -13    7    T  4.87D+00  4.87D+00
@  7    -1259.34480979        3.35210D-02   -1.76D-03    7
      Virial theorem: -V/T =      2.002058
@    MULPOP   C_a     0.68; C_b     0.57; C_c     0.67; C_d     0.54; C_e     0.71; C_f     0.53; C_g     0.67; C_h     0.54; C_i     0.70; C_j     0.54; 
@             C_k     0.73; C_l     0.55; C_m     0.83; C_n     0.32; C_o     0.75; C_p     0.88; C_q     0.81; C_r     0.41; C_s     0.81; C_t     0.54; 
@             C_u     0.72; C_v     0.53; C_w     0.73; C_x     0.52; C_y     1.28; C_z     0.42; N_a    -0.35; N_b     0.57; O_a    -0.82; O_b    -0.80; 
@    MULPOP    dipole moment & components:      9.7282;        3.9846      8.8747      0.0000
 -----------------------------------------------------------------------------
   8  Screening settings (-IFTHRS, JTDIIS, DIFDEN, times)  -13    8    T  4.84D+00  4.85D+00
@  8    -1259.34519051        1.49547D-02   -3.81D-04    8
      Virial theorem: -V/T =      2.002055
@    MULPOP   C_a     0.68; C_b     0.57; C_c     0.67; C_d     0.54; C_e     0.71; C_f     0.53; C_g     0.67; C_h     0.55; C_i     0.69; C_j     0.54; 
@             C_k     0.73; C_l     0.55; C_m     0.83; C_n     0.33; C_o     0.75; C_p     0.88; C_q     0.83; C_r     0.40; C_s     0.82; C_t     0.54; 
@             C_u     0.72; C_v     0.53; C_w     0.73; C_x     0.52; C_y     1.29; C_z     0.40; N_a    -0.35; N_b     0.57; O_a    -0.82; O_b    -0.80; 
@    MULPOP    dipole moment & components:      9.4769;        3.7723      8.6937      0.0000
 -----------------------------------------------------------------------------
   9  Screening settings (-IFTHRS, JTDIIS, DIFDEN, times)  -13    9    T  4.72D+00  4.72D+00
@  9    -1259.34525119        6.13280D-03   -6.07D-05    8
      Virial theorem: -V/T =      2.002048
@    MULPOP   C_a     0.68; C_b     0.57; C_c     0.67; C_d     0.54; C_e     0.71; C_f     0.54; C_g     0.66; C_h     0.55; C_i     0.69; C_j     0.55; 
@             C_k     0.73; C_l     0.56; C_m     0.82; C_n     0.33; C_o     0.74; C_p     0.88; C_q     0.83; C_r     0.41; C_s     0.82; C_t     0.54; 
@             C_u     0.72; C_v     0.53; C_w     0.73; C_x     0.52; C_y     1.29; C_z     0.40; N_a    -0.35; N_b     0.57; O_a    -0.82; O_b    -0.80; 
@    MULPOP    dipole moment & components:      9.3508;        3.7198      8.5791      0.0000
 -----------------------------------------------------------------------------
  10  Screening settings (-IFTHRS, JTDIIS, DIFDEN, times)  -13   10    T  4.70D+00  4.70D+00
@ 10    -1259.34526767        3.84816D-03   -1.65D-05    8
      Virial theorem: -V/T =      2.002047
@    MULPOP   C_a     0.67; C_b     0.58; C_c     0.66; C_d     0.55; C_e     0.71; C_f     0.54; C_g     0.66; C_h     0.56; C_i     0.69; C_j     0.55; 
@             C_k     0.72; C_l     0.56; C_m     0.82; C_n     0.34; C_o     0.74; C_p     0.88; C_q     0.83; C_r     0.41; C_s     0.82; C_t     0.54; 
@             C_u     0.72; C_v     0.53; C_w     0.72; C_x     0.53; C_y     1.29; C_z     0.40; N_a    -0.35; N_b     0.57; O_a    -0.82; O_b    -0.80; 
@    MULPOP    dipole moment & components:      9.2601;        3.6896      8.4933      0.0000
 -----------------------------------------------------------------------------
  11  Screening settings (-IFTHRS, JTDIIS, DIFDEN, times)  -13   11    T  4.53D+00  4.53D+00
@ 11    -1259.34527580        2.35248D-03   -8.14D-06    8
      Virial theorem: -V/T =      2.002048
@    MULPOP   C_a     0.67; C_b     0.58; C_c     0.66; C_d     0.55; C_e     0.70; C_f     0.54; C_g     0.66; C_h     0.56; C_i     0.68; C_j     0.55; 
@             C_k     0.72; C_l     0.57; C_m     0.82; C_n     0.34; C_o     0.74; C_p     0.88; C_q     0.83; C_r     0.41; C_s     0.82; C_t     0.54; 
@             C_u     0.72; C_v     0.53; C_w     0.72; C_x     0.53; C_y     1.29; C_z     0.41; N_a    -0.35; N_b     0.57; O_a    -0.82; O_b    -0.80; 
@    MULPOP    dipole moment & components:      9.1785;        3.6647      8.4151      0.0000
 -----------------------------------------------------------------------------
  12  Screening settings (-IFTHRS, JTDIIS, DIFDEN, times)  -13   12    T  4.48D+00  4.48D+00
@ 12    -1259.34527935        8.88571D-04   -3.54D-06    8
      Virial theorem: -V/T =      2.002047
@    MULPOP   C_a     0.67; C_b     0.58; C_c     0.66; C_d     0.55; C_e     0.70; C_f     0.55; C_g     0.65; C_h     0.56; C_i     0.68; C_j     0.56; 
@             C_k     0.72; C_l     0.57; C_m     0.82; C_n     0.34; C_o     0.74; C_p     0.88; C_q     0.82; C_r     0.41; C_s     0.82; C_t     0.55; 
@             C_u     0.71; C_v     0.54; C_w     0.72; C_x     0.53; C_y     1.29; C_z     0.41; N_a    -0.35; N_b     0.57; O_a    -0.82; O_b    -0.80; 
@    MULPOP    dipole moment & components:      9.1064;        3.6435      8.3457      0.0000
 -----------------------------------------------------------------------------
  13  Screening settings (-IFTHRS, JTDIIS, DIFDEN, times)  -13   13    T  4.42D+00  4.42D+00
@ 13    -1259.34527978        3.91481D-04   -4.39D-07    8
      Virial theorem: -V/T =      2.002047
@    MULPOP   C_a     0.67; C_b     0.58; C_c     0.66; C_d     0.55; C_e     0.70; C_f     0.55; C_g     0.65; C_h     0.56; C_i     0.68; C_j     0.56; 
@             C_k     0.72; C_l     0.57; C_m     0.81; C_n     0.34; C_o     0.74; C_p     0.88; C_q     0.82; C_r     0.41; C_s     0.82; C_t     0.55; 
@             C_u     0.71; C_v     0.54; C_w     0.72; C_x     0.53; C_y     1.29; C_z     0.41; N_a    -0.35; N_b     0.57; O_a    -0.82; O_b    -0.80; 
@    MULPOP    dipole moment & components:      9.0801;        3.6352      8.3207      0.0000
 -----------------------------------------------------------------------------
  14  Screening settings (-IFTHRS, JTDIIS, DIFDEN, times)  -13   14    T  4.25D+00  4.25D+00
@ 14    -1259.34527983        1.85692D-04   -4.44D-08    8
      Virial theorem: -V/T =      2.002047
@    MULPOP   C_a     0.67; C_b     0.58; C_c     0.66; C_d     0.55; C_e     0.70; C_f     0.55; C_g     0.65; C_h     0.56; C_i     0.68; C_j     0.56; 
@             C_k     0.72; C_l     0.57; C_m     0.81; C_n     0.34; C_o     0.74; C_p     0.88; C_q     0.82; C_r     0.41; C_s     0.82; C_t     0.55; 
@             C_u     0.71; C_v     0.54; C_w     0.72; C_x     0.53; C_y     1.29; C_z     0.41; N_a    -0.35; N_b     0.57; O_a    -0.82; O_b    -0.80; 
@    MULPOP    dipole moment & components:      9.0741;        3.6334      8.3149      0.0000
 -----------------------------------------------------------------------------
  15  Screening settings (-IFTHRS, JTDIIS, DIFDEN, times)  -13   15    T  4.15D+00  4.15D+00
@ 15    -1259.34527984        8.94263D-05   -9.30D-09    8
      Virial theorem: -V/T =      2.002047
@    MULPOP   C_a     0.67; C_b     0.58; C_c     0.66; C_d     0.55; C_e     0.70; C_f     0.55; C_g     0.65; C_h     0.56; C_i     0.68; C_j     0.56; 
@             C_k     0.72; C_l     0.57; C_m     0.81; C_n     0.34; C_o     0.74; C_p     0.88; C_q     0.82; C_r     0.41; C_s     0.82; C_t     0.55; 
@             C_u     0.71; C_v     0.54; C_w     0.72; C_x     0.53; C_y     1.29; C_z     0.41; N_a    -0.35; N_b     0.57; O_a    -0.82; O_b    -0.80; 
@    MULPOP    dipole moment & components:      9.0717;        3.6328      8.3125      0.0000
 -----------------------------------------------------------------------------
  16  Screening settings (-IFTHRS, JTDIIS, DIFDEN, times)  -13   16    T  4.07D+00  4.07D+00
@ 16    -1259.34527984        3.92061D-05   -1.34D-09    8
      Virial theorem: -V/T =      2.002047
@    MULPOP   C_a     0.67; C_b     0.58; C_c     0.66; C_d     0.55; C_e     0.70; C_f     0.55; C_g     0.65; C_h     0.56; C_i     0.68; C_j     0.56; 
@             C_k     0.72; C_l     0.57; C_m     0.81; C_n     0.34; C_o     0.74; C_p     0.88; C_q     0.82; C_r     0.41; C_s     0.82; C_t     0.55; 
@             C_u     0.71; C_v     0.54; C_w     0.72; C_x     0.53; C_y     1.29; C_z     0.41; N_a    -0.35; N_b     0.57; O_a    -0.82; O_b    -0.80; 
@    MULPOP    dipole moment & components:      9.0712;        3.6327      8.3121      0.0000
 -----------------------------------------------------------------------------
  17  Screening settings (-IFTHRS, JTDIIS, DIFDEN, times)  -13   17    T  4.08D+00  4.08D+00
@ 17    -1259.34527984        2.65551D-05   -5.29D-10    8
      Virial theorem: -V/T =      2.002047
@    MULPOP   C_a     0.67; C_b     0.58; C_c     0.66; C_d     0.55; C_e     0.70; C_f     0.55; C_g     0.65; C_h     0.56; C_i     0.68; C_j     0.56; 
@             C_k     0.72; C_l     0.57; C_m     0.81; C_n     0.34; C_o     0.74; C_p     0.88; C_q     0.82; C_r     0.41; C_s     0.82; C_t     0.55; 
@             C_u     0.71; C_v     0.54; C_w     0.72; C_x     0.53; C_y     1.29; C_z     0.41; N_a    -0.35; N_b     0.57; O_a    -0.82; O_b    -0.80; 
@    MULPOP    dipole moment & components:      9.0710;        3.6326      8.3119      0.0000
 -----------------------------------------------------------------------------
  18  Screening settings (-IFTHRS, JTDIIS, DIFDEN, times)  -13   18    T  4.04D+00  4.04D+00
@ 18    -1259.34527984        1.17793D-05   -2.87D-10    8
      Virial theorem: -V/T =      2.002047
@    MULPOP   C_a     0.67; C_b     0.58; C_c     0.66; C_d     0.55; C_e     0.70; C_f     0.55; C_g     0.65; C_h     0.56; C_i     0.68; C_j     0.56; 
@             C_k     0.72; C_l     0.57; C_m     0.81; C_n     0.34; C_o     0.74; C_p     0.88; C_q     0.82; C_r     0.41; C_s     0.82; C_t     0.55; 
@             C_u     0.71; C_v     0.54; C_w     0.72; C_x     0.53; C_y     1.29; C_z     0.41; N_a    -0.35; N_b     0.57; O_a    -0.82; O_b    -0.80; 
@    MULPOP    dipole moment & components:      9.0709;        3.6327      8.3117      0.0000
 -----------------------------------------------------------------------------
  19  Screening settings (-IFTHRS, JTDIIS, DIFDEN, times)  -13   19    T  4.02D+00  4.02D+00
@ 19    -1259.34527984        5.50017D-06   -3.64D-11    8

@ *** DIIS converged in  19 iterations !
@     Converged SCF energy, gradient:  -1259.345279840259    5.50D-06
    - total time used in SIRFCK :              0.00 seconds


 *** SCF orbital energy analysis ***

 Only the 20 lowest virtual orbital energies printed in each symmetry.

 Number of electrons :  214
 Orbital occupations :  107

 Sym       Hartree-Fock orbital energies

1 A     -20.59821314   -20.59540301   -15.84565951   -15.59906409   -11.30761827
        -11.29643456   -11.29491029   -11.28512598   -11.27706350   -11.27121821
        -11.26668120   -11.26654158   -11.26301536   -11.26232365   -11.25994209
        -11.25974378   -11.25727492   -11.25718593   -11.25669169   -11.25490715
        -11.25467527   -11.25288590   -11.25214410   -11.25188040   -11.24947070
        -11.24649735   -11.24301954   -11.23880182   -11.23399035   -11.23159698
         -1.58449428    -1.38217139    -1.23880024    -1.14715038    -1.13271515
         -1.12386454    -1.11594505    -1.10687521    -1.09542157    -1.08150265
         -1.06529634    -1.04694429    -1.02657148    -1.00430345    -0.98030975
         -0.95526640    -0.93838597    -0.89421174    -0.86694866    -0.84000811
         -0.81554327    -0.79670106    -0.78735972    -0.78121994    -0.77502068
         -0.76948382    -0.76382457    -0.76106931    -0.75122453    -0.74928310
         -0.73705662    -0.71704693    -0.71440170    -0.69702575    -0.68062317
         -0.67583752    -0.67141561    -0.65915227    -0.65054117    -0.64029149
         -0.63173139    -0.61618168    -0.61335359    -0.60056607    -0.58893462
         -0.58291363    -0.56986440    -0.56408396    -0.55702009    -0.54629727
         -0.54483925    -0.53692516    -0.52959988    -0.52892166    -0.52300107
         -0.52287103    -0.51758878    -0.51269696    -0.50787585    -0.50302851
         -0.49991118    -0.49636616    -0.48818279    -0.48160540    -0.47836451
         -0.47829202    -0.46608677    -0.45041572    -0.44005162    -0.43118765
         -0.40861610    -0.38273019    -0.35370749    -0.32190451    -0.28812479
         -0.25411276    -0.22268282     0.00243675     0.02167835     0.02764304
          0.03015191     0.03128744     0.03289422     0.03440212     0.03474926
          0.03936210     0.04105148     0.04467257     0.04893313     0.05272709
          0.05802449     0.06217351     0.06580854     0.06807621     0.07329453
          0.07920868     0.08598790

    E(LUMO) :     0.00243675 au (symmetry 1)
  - E(HOMO) :    -0.22268282 au (symmetry 1)
  ------------------------------------------
    gap     :     0.22511957 au

 --- Writing SIRIFC interface file

 CPU and wall time for SCF :     225.683     225.906


                       .-----------------------------------.
                       | --- Final results from SIRIUS --- |
                       `-----------------------------------'


@    Spin multiplicity:           1
@    Spatial symmetry:            1 ( irrep  A   in C1  )
@    Total charge of molecule:    0

@    Final HF energy:           -1259.345279840259                 
@    Nuclear repulsion:          1902.014739146232
@    Electronic energy:         -3161.360018986491

@    Final gradient norm:           0.000005500169

 
     Date and time (Linux)  : Tue May 27 13:18:26 2025
     Host name              : xm059                                   

File label for MO orbitals:  27May25   FOCKDIIS

 (Only coefficients > 0.0100 are printed.)

 Molecular orbitals for symmetry species 1  (A  )
 ------------------------------------------------

    Orbital        98       99      100      101      102      103      104
   7 C_a :2pz   -0.2091  -0.0035   0.1286  -0.1239   0.2104  -0.0022   0.2160
  13 C_a :2pz   -0.0058   0.0005   0.0050  -0.0036   0.0098  -0.0002   0.0215
  17 C_a :3d1+  -0.0088  -0.0006  -0.0012  -0.0108   0.0049  -0.0093   0.0107
  30 C_b :2pz   -0.2097  -0.0108   0.0160  -0.2035   0.1194  -0.1458   0.1885
  36 C_b :2pz   -0.0052  -0.0007  -0.0002  -0.0081   0.0060  -0.0113   0.0182
  40 C_b :3d1+   0.0085  -0.0000  -0.0078   0.0043  -0.0118  -0.0017  -0.0126
  53 C_c :2pz   -0.1291  -0.0164  -0.1558  -0.1712  -0.1238  -0.1908  -0.1059
  59 C_c :2pz   -0.0024  -0.0007  -0.0049  -0.0072  -0.0052  -0.0125  -0.0109
  63 C_c :3d1+   0.0003  -0.0006  -0.0103  -0.0010  -0.0115  -0.0022  -0.0125
  76 C_d :2pz   -0.0355  -0.0144  -0.2120  -0.0573  -0.2080  -0.0650  -0.2045
  82 C_d :2pz   -0.0008  -0.0000  -0.0058  -0.0018  -0.0117  -0.0032  -0.0190
  86 C_d :3d1+   0.0072   0.0007   0.0056   0.0099   0.0048   0.0117   0.0050
  99 C_e :2pz    0.1124  -0.0051  -0.1813   0.1486  -0.1418   0.1917  -0.0766
 105 C_e :2pz    0.0021  -0.0002  -0.0054   0.0057  -0.0071   0.0115  -0.0069
 109 C_e :3d1+   0.0090   0.0003  -0.0023   0.0110   0.0017   0.0116   0.0062
 122 C_f :2pz    0.1847   0.0032  -0.0890   0.2139  -0.0022   0.2129   0.0847
 125 C_f :2pz   -0.0122  -0.0006  -0.0021  -0.0073  -0.0081   0.0023  -0.0046
 128 C_f :2pz    0.0046  -0.0001  -0.0030   0.0084   0.0015   0.0141   0.0076
 145 C_g :2pz    0.2249   0.0137   0.0894   0.1609   0.2028   0.0095   0.2097
 148 C_g :2pz   -0.0110  -0.0003   0.0023  -0.0086   0.0015  -0.0076   0.0017
 151 C_g :2pz    0.0056   0.0005   0.0031   0.0052   0.0084   0.0025   0.0199
 155 C_g :3d1+   0.0073   0.0008   0.0094   0.0001   0.0107  -0.0090   0.0045
 168 C_h :2pz    0.1944   0.0165   0.1797   0.0423   0.2125  -0.1382   0.0955
 171 C_h :2pz   -0.0081  -0.0008  -0.0112   0.0063  -0.0006   0.0056   0.0078
 174 C_h :2pz    0.0042   0.0005   0.0055   0.0013   0.0101  -0.0104   0.0083
 178 C_h :3d1+  -0.0096  -0.0005  -0.0019  -0.0095  -0.0097  -0.0026  -0.0131
 191 C_i :2pz    0.0876   0.0139   0.2231  -0.1579   0.0418  -0.2045  -0.1962
 197 C_i :2pz    0.0013   0.0002   0.0050  -0.0041   0.0043  -0.0150  -0.0190
 201 C_i :3d1+  -0.0023   0.0002   0.0064  -0.0110  -0.0071  -0.0033  -0.0122
 214 C_j :2pz   -0.0085   0.0077   0.1717  -0.2182  -0.1031  -0.0878  -0.2103
 220 C_j :2pz    0.0005   0.0003   0.0056  -0.0091  -0.0068  -0.0033  -0.0173
 224 C_j :3d1+  -0.0058  -0.0007  -0.0104   0.0059  -0.0046   0.0124   0.0108
 237 C_k :2pz   -0.1447  -0.0042   0.0182  -0.1649  -0.2269   0.1759   0.0380
 243 C_k :2pz   -0.0025   0.0000   0.0019  -0.0075  -0.0124   0.0121   0.0044
 247 C_k :3d1+  -0.0095  -0.0006  -0.0062  -0.0002  -0.0074   0.0121   0.0110
 260 C_l :2pz   -0.2055  -0.0112  -0.0952  -0.0468  -0.1677   0.2181   0.1719
 263 C_l :2pz    0.0148   0.0009   0.0104  -0.0064  -0.0032   0.0009  -0.0009
 266 C_l :2pz   -0.0063  -0.0005  -0.0049   0.0011  -0.0047   0.0109   0.0121
 270 C_l :3d1+   0.0039  -0.0000  -0.0035   0.0099   0.0120  -0.0084  -0.0003
 283 C_m :2pz   -0.2370  -0.0173  -0.2179   0.1541   0.0567   0.0541   0.1539
 289 C_m :2pz   -0.0053  -0.0005  -0.0065   0.0059   0.0028   0.0041   0.0145
 293 C_m :3d1+  -0.0074  -0.0007  -0.0098   0.0111   0.0104  -0.0073  -0.0018
 306 C_n :2pz   -0.2014  -0.0162  -0.2237   0.2158   0.1746  -0.1022  -0.0073
 309 C_n :2pz    0.0134   0.0010   0.0128  -0.0115  -0.0101   0.0089   0.0083
 314 C_n :3d1-  -0.0007  -0.0001  -0.0023   0.0045   0.0069  -0.0091  -0.0107
 316 C_n :3d1+   0.0100   0.0007   0.0087  -0.0052  -0.0001  -0.0059  -0.0114
 329 C_o :2pz   -0.0938  -0.0087  -0.1337   0.1719   0.2043  -0.2274  -0.2374
 335 C_o :2pz   -0.0034  -0.0003  -0.0053   0.0082   0.0122  -0.0177  -0.0248
 352 C_p :2pz    0.0147   0.0002  -0.0072   0.0356   0.0684  -0.1035  -0.1380
 358 C_p :2pz   -0.0038  -0.0004  -0.0056   0.0076   0.0103  -0.0140  -0.0197
 360 C_p :3d1-   0.0071   0.0006   0.0082  -0.0092  -0.0099   0.0104   0.0105
 362 C_p :3d1+   0.0074   0.0007   0.0098  -0.0121  -0.0141   0.0156   0.0164
 367 C_p :3d1+   0.0034   0.0003   0.0052  -0.0070  -0.0087   0.0098   0.0104
 375 C_q :2pz   -0.1307  -0.0133   0.0726  -0.0056   0.0915   0.1706  -0.2246
 378 C_q :2pz    0.0062   0.0164  -0.0070  -0.0060   0.0058   0.0065  -0.0081
 381 C_q :2pz    0.0010   0.0010  -0.0020  -0.0040   0.0080   0.0151  -0.0256
 385 C_q :3d1+  -0.0003  -0.0008  -0.0036  -0.0076   0.0107   0.0120  -0.0112
 398 C_r :2pz   -0.0350  -0.0139  -0.0463  -0.1267   0.1853   0.2074  -0.1872
 404 C_r :2pz   -0.0045   0.0021   0.0019  -0.0020   0.0070   0.0125  -0.0174
 408 C_r :3d1+   0.0076   0.0005  -0.0055  -0.0018  -0.0032  -0.0087   0.0133
 421 C_s :2pz    0.1261  -0.0111  -0.1969  -0.2099   0.1477   0.0228   0.1225
 427 C_s :2pz    0.0017  -0.0011  -0.0048  -0.0074   0.0075   0.0012   0.0145
 431 C_s :3d1+   0.0092   0.0001  -0.0095  -0.0059  -0.0007  -0.0078   0.0123
 444 C_t :2pz    0.1882  -0.0042  -0.2027  -0.1369   0.0111  -0.1221   0.2029
 447 C_t :2pz   -0.0109   0.0040   0.0053  -0.0029   0.0077   0.0051   0.0027
 450 C_t :2pz    0.0080  -0.0015  -0.0096  -0.0082   0.0025  -0.0073   0.0184
 454 C_t :3d1+  -0.0040   0.0006   0.0087   0.0112  -0.0095  -0.0030  -0.0063
 467 C_u :2pz    0.1939   0.0092  -0.0878   0.0784  -0.2031  -0.1959   0.0457
 473 C_u :2pz    0.0044   0.0012  -0.0023   0.0033  -0.0111  -0.0144   0.0034
 477 C_u :3d1+   0.0045   0.0007   0.0032   0.0100  -0.0104  -0.0031  -0.0072
 490 C_v :2pz    0.1300   0.0145   0.0317   0.1797  -0.2016  -0.0754  -0.1075
 496 C_v :2pz    0.0016   0.0011   0.0029   0.0092  -0.0120  -0.0060  -0.0090
 500 C_v :3d1+  -0.0094  -0.0003   0.0061  -0.0020   0.0102   0.0120  -0.0041
 513 C_w :2pz   -0.0189   0.0145   0.1876   0.1907  -0.0065   0.1903  -0.1879
 519 C_w :2pz    0.0007  -0.0006   0.0044   0.0066   0.0003   0.0136  -0.0183
 523 C_w :3d1+  -0.0066   0.0003   0.0099   0.0029   0.0083   0.0116  -0.0023
 536 C_x :2pz   -0.1159   0.0090   0.2127   0.0900   0.1320   0.2098  -0.0549
 539 C_x :2pz    0.0101  -0.0005  -0.0074   0.0046  -0.0072   0.0029  -0.0076
 542 C_x :2pz   -0.0025   0.0003   0.0063   0.0026   0.0079   0.0154  -0.0063
 544 C_x :3d1-  -0.0073  -0.0003   0.0024  -0.0069   0.0081  -0.0022   0.0107
 546 C_x :3d1+  -0.0012  -0.0007  -0.0077  -0.0106   0.0024  -0.0099   0.0121
 559 C_y :2pz   -0.1771  -0.0126   0.2014   0.2198  -0.2320  -0.2344   0.2226
 562 C_y :2pz    0.0026   0.0103  -0.0026  -0.0008  -0.0011  -0.0036   0.0064
 565 C_y :2pz   -0.0121   0.0035   0.0136   0.0158  -0.0184  -0.0216   0.0248
 574 C_y :3d1+  -0.0068   0.0297   0.0044   0.0053  -0.0050  -0.0042   0.0032
 582 C_z :2pz   -0.1917  -0.0029   0.1932   0.1824  -0.1597  -0.1264   0.0861
 585 C_z :2pz    0.0130  -0.0339  -0.0065  -0.0035  -0.0003  -0.0030   0.0040
 590 C_z :3d1-  -0.0025  -0.0006   0.0001  -0.0031   0.0065   0.0098  -0.0119
 592 C_z :3d1+   0.0077   0.0008  -0.0096  -0.0114   0.0130   0.0141  -0.0142
 595 C_z :3d1-   0.0004  -0.0103   0.0000  -0.0015   0.0035   0.0058  -0.0079
 605 N_a :2pz    0.1532   0.0122   0.1694  -0.1803  -0.1877   0.1920   0.1927
 608 N_a :2pz    0.0125   0.0010   0.0146  -0.0165  -0.0185   0.0204   0.0222
 611 N_a :2pz    0.0178   0.0015   0.0217  -0.0258  -0.0304   0.0357   0.0420
 628 N_b :2pz    0.0209  -0.0072  -0.0176  -0.0131   0.0067  -0.0010   0.0088
 634 N_b :2pz    0.0113   0.0001  -0.0111  -0.0102   0.0086   0.0066  -0.0048
 636 N_b :3d1-  -0.0060  -0.0148   0.0083   0.0085  -0.0089  -0.0091   0.0088
 638 N_b :3d1+  -0.0044   0.0550  -0.0006   0.0017  -0.0022  -0.0025   0.0025
 651 O_a :2pz    0.0852  -0.6408  -0.0312  -0.0605   0.0688   0.0722  -0.0710
 654 O_a :2pz    0.0055  -0.0500  -0.0013  -0.0037   0.0046   0.0053  -0.0057
 657 O_a :2pz    0.0044  -0.0647   0.0006  -0.0033   0.0057   0.0079  -0.0097
 661 O_a :3d1+   0.0022  -0.0134  -0.0011  -0.0016   0.0016   0.0015  -0.0013
 666 O_a :3d1+   0.0034  -0.0280  -0.0009  -0.0019   0.0021   0.0021  -0.0019
 674 O_b :2pz    0.0283   0.6466  -0.0953  -0.0759   0.0744   0.0732  -0.0693
 677 O_b :2pz    0.0005   0.0507  -0.0060  -0.0049   0.0053   0.0059  -0.0063
 680 O_b :2pz   -0.0021   0.0658  -0.0051  -0.0040   0.0052   0.0068  -0.0082
 687 O_b :3d1-   0.0010   0.0224  -0.0033  -0.0026   0.0026   0.0025  -0.0023
 689 O_b :3d1+   0.0001  -0.0183   0.0017   0.0010  -0.0009  -0.0009   0.0008

    Orbital       105      106      107      108      109      110      111
   2 C_a :1s    -0.0000   0.0000  -0.0000  -0.0000  -0.0028   0.0349  -0.0015
   3 C_a :1s    -0.0000  -0.0000   0.0000   0.0000  -0.0017  -0.2176   0.0808
   4 C_a :1s     0.0000   0.0000   0.0000   0.0000   0.4648 -11.6732   1.5499
   5 C_a :2px   -0.0000   0.0000   0.0000   0.0000   0.0017  -0.0173  -0.0020
   6 C_a :2py    0.0000  -0.0000   0.0000   0.0000  -0.0019   0.0170   0.0031
   7 C_a :2pz   -0.1013   0.1868   0.1942   0.1373  -0.0000  -0.0000   0.0000
   8 C_a :2px    0.0000  -0.0000   0.0000  -0.0000  -0.0153   0.1154  -0.0261
   9 C_a :2py    0.0000  -0.0000   0.0000  -0.0000   0.0750   0.0780  -0.1356
  10 C_a :2pz    0.0008   0.0131   0.0128   0.0141  -0.0000  -0.0000   0.0000
  11 C_a :2px   -0.0000  -0.0000   0.0000   0.0000   2.0126  -1.8262  -2.0603
  12 C_a :2py   -0.0000   0.0000   0.0000   0.0000   1.8008   1.0807  -2.0574
  13 C_a :2pz   -0.0098   0.0469   0.0509   0.0974  -0.0000  -0.0000   0.0000
  15 C_a :3d1-   0.0073   0.0101   0.0039  -0.0142  -0.0000  -0.0000   0.0000
  17 C_a :3d1+   0.0040   0.0145   0.0082  -0.0131   0.0000   0.0000  -0.0000
  19 C_a :3d2-   0.0000  -0.0000   0.0000  -0.0000   0.0528   0.0707  -0.0877
  20 C_a :3d1-   0.0017   0.0094   0.0064  -0.0113   0.0000   0.0000  -0.0000
  21 C_a :3d0   -0.0000   0.0000  -0.0000  -0.0000  -0.0088   0.0359  -0.0043
  22 C_a :3d1+   0.0044   0.0082   0.0037  -0.0170  -0.0000  -0.0000   0.0000
  23 C_a :3d2+   0.0000  -0.0000   0.0000  -0.0000   0.0126   0.0407  -0.0388
  25 C_b :1s     0.0000   0.0000   0.0000   0.0000  -0.0023  -0.0379   0.0057
  26 C_b :1s    -0.0000   0.0000  -0.0000  -0.0000  -0.0128   0.1414   0.0462
  27 C_b :1s    -0.0000   0.0000  -0.0000   0.0000   0.2883  11.1153  -0.9407
  28 C_b :2px    0.0000  -0.0000  -0.0000  -0.0000  -0.0016  -0.0243   0.0063
  29 C_b :2py    0.0000  -0.0000  -0.0000  -0.0000   0.0016   0.0242  -0.0051
  30 C_b :2pz    0.0533   0.2193   0.1176  -0.2146   0.0000   0.0000  -0.0000
  31 C_b :2px    0.0000  -0.0000   0.0000  -0.0000   0.0826   0.1805  -0.1306
  32 C_b :2py   -0.0000  -0.0000   0.0000  -0.0000  -0.0033   0.0196  -0.0256
  33 C_b :2pz   -0.0033   0.0116   0.0108  -0.0255   0.0000   0.0000  -0.0000
  34 C_b :2px    0.0000  -0.0000   0.0000  -0.0000   1.9891  -2.1286  -1.8362
  35 C_b :2py    0.0000  -0.0000  -0.0000  -0.0000   2.2032   0.9700  -2.1563
  36 C_b :2pz    0.0013   0.0396   0.0388  -0.1645   0.0000   0.0000  -0.0000
  38 C_b :3d1-   0.0093  -0.0063  -0.0110  -0.0087   0.0000   0.0000  -0.0000
  40 C_b :3d1+   0.0073  -0.0120  -0.0134  -0.0073   0.0000   0.0000  -0.0000
  42 C_b :3d2-   0.0000  -0.0000  -0.0000  -0.0000   0.0504   0.0345  -0.0713
  43 C_b :3d1-   0.0045  -0.0085  -0.0103  -0.0040  -0.0000  -0.0000   0.0000
  44 C_b :3d0    0.0000   0.0000   0.0000  -0.0000  -0.0066  -0.0346   0.0067
  45 C_b :3d1+   0.0067  -0.0064  -0.0096  -0.0120  -0.0000  -0.0000   0.0000
  46 C_b :3d2+  -0.0000   0.0000   0.0000   0.0000  -0.0181  -0.0417   0.0385
  48 C_c :1s    -0.0000  -0.0000  -0.0000  -0.0000  -0.0026   0.0291   0.0039
  49 C_c :1s     0.0000  -0.0000   0.0000  -0.0000   0.0147  -0.1901   0.0205
  50 C_c :1s     0.0000  -0.0000   0.0000   0.0000   0.4375  -9.7295  -0.6376
  51 C_c :2px    0.0000   0.0000   0.0000   0.0000   0.0014  -0.0140  -0.0040
  52 C_c :2py    0.0000  -0.0000   0.0000   0.0000  -0.0017   0.0137   0.0051
  53 C_c :2pz    0.1986  -0.1154  -0.2198  -0.1128  -0.0000  -0.0000   0.0000
  54 C_c :2px    0.0000  -0.0000   0.0000  -0.0000   0.0205   0.1188  -0.0468
  55 C_c :2py   -0.0000  -0.0000  -0.0000  -0.0000   0.1010   0.0976  -0.1230
  56 C_c :2pz    0.0050  -0.0102  -0.0147  -0.0110  -0.0000  -0.0000   0.0000
  57 C_c :2px   -0.0000   0.0000   0.0000   0.0000   2.3746  -1.1479  -2.0737
  58 C_c :2py   -0.0000   0.0000  -0.0000   0.0000   2.3685   1.2753  -1.6588
  59 C_c :2pz    0.0261  -0.0334  -0.0583  -0.0734  -0.0000  -0.0000   0.0000
  61 C_c :3d1-  -0.0019  -0.0105  -0.0054   0.0129  -0.0000  -0.0000   0.0000
  63 C_c :3d1+   0.0041  -0.0132  -0.0103   0.0120  -0.0000  -0.0000   0.0000
  65 C_c :3d2-  -0.0000   0.0000  -0.0000  -0.0000   0.0407   0.0618  -0.0461
  66 C_c :3d1-   0.0025  -0.0082  -0.0079   0.0104   0.0000   0.0000  -0.0000
  67 C_c :3d0   -0.0000  -0.0000  -0.0000   0.0000  -0.0083   0.0303   0.0002
  68 C_c :3d1+  -0.0001  -0.0083  -0.0050   0.0151   0.0000   0.0000  -0.0000
  69 C_c :3d2+   0.0000  -0.0000   0.0000  -0.0000   0.0270   0.0473  -0.0451
  71 C_d :1s     0.0000  -0.0000   0.0000  -0.0000  -0.0014  -0.0302  -0.0051
  72 C_d :1s     0.0000   0.0000   0.0000   0.0000  -0.0224   0.1014   0.0768
  73 C_d :1s    -0.0000  -0.0000  -0.0000  -0.0000   0.1775   8.8384   1.8210
  74 C_d :2px   -0.0000  -0.0000  -0.0000  -0.0000  -0.0013  -0.0196  -0.0008
  75 C_d :2py    0.0000  -0.0000  -0.0000   0.0000   0.0010   0.0193   0.0021
  76 C_d :2pz    0.0755  -0.1986  -0.1483   0.1924  -0.0000  -0.0000   0.0000
  77 C_d :2px   -0.0000  -0.0000   0.0000  -0.0000   0.1098   0.1719  -0.0970
  78 C_d :2py    0.0000  -0.0000   0.0000  -0.0000   0.0058   0.0359  -0.0438
  79 C_d :2pz    0.0079  -0.0086  -0.0127   0.0230  -0.0000  -0.0000   0.0000
  80 C_d :2px    0.0000  -0.0000   0.0000  -0.0000   2.2708  -1.7878  -2.8527
  81 C_d :2py    0.0000  -0.0000   0.0000  -0.0000   2.1657   0.6646  -2.2768
  82 C_d :2pz    0.0148  -0.0311  -0.0459   0.1477  -0.0000  -0.0000   0.0000
  84 C_d :3d1-  -0.0111   0.0017   0.0119   0.0070   0.0000   0.0000  -0.0000
  86 C_d :3d1+  -0.0130   0.0071   0.0151   0.0058   0.0000   0.0000  -0.0000
  88 C_d :3d2-  -0.0000   0.0000  -0.0000  -0.0000   0.0317   0.0296  -0.0321
  89 C_d :3d1-  -0.0077   0.0051   0.0116   0.0029  -0.0000  -0.0000   0.0000
  90 C_d :3d0    0.0000   0.0000   0.0000   0.0000  -0.0052  -0.0276  -0.0053
  91 C_d :3d1+  -0.0090   0.0027   0.0106   0.0098  -0.0000  -0.0000   0.0000
  92 C_d :3d2+  -0.0000   0.0000  -0.0000   0.0000  -0.0279  -0.0454   0.0344
  94 C_e :1s     0.0000   0.0000   0.0000   0.0000  -0.0024   0.0228   0.0103
  95 C_e :1s     0.0000   0.0000   0.0000   0.0000   0.0253  -0.1533  -0.0412
  96 C_e :1s     0.0000   0.0000  -0.0000   0.0000   0.3363  -7.5101  -2.9892
  97 C_e :2px    0.0000   0.0000   0.0000   0.0000   0.0010  -0.0107  -0.0059
  98 C_e :2py   -0.0000   0.0000   0.0000   0.0000  -0.0013   0.0106   0.0069
  99 C_e :2pz   -0.2225   0.0236   0.2389   0.0885   0.0000   0.0000  -0.0000
 100 C_e :2px    0.0000  -0.0000   0.0000   0.0000   0.0394   0.1164  -0.0434
 101 C_e :2py    0.0000   0.0000   0.0000  -0.0000   0.1000   0.0977  -0.0767
 102 C_e :2pz   -0.0089   0.0057   0.0162   0.0080   0.0000   0.0000  -0.0000
 103 C_e :2px   -0.0000   0.0000   0.0000   0.0000   2.7189  -0.5639  -2.0102
 104 C_e :2py   -0.0000   0.0000   0.0000   0.0000   2.4918   1.2514  -1.0993
 105 C_e :2pz   -0.0323   0.0148   0.0644   0.0521   0.0000   0.0000  -0.0000
 107 C_e :3d1-  -0.0042   0.0095   0.0068  -0.0113  -0.0000  -0.0000   0.0000
 109 C_e :3d1+  -0.0108   0.0098   0.0122  -0.0106  -0.0000  -0.0000   0.0000
 111 C_e :3d2-  -0.0000   0.0000  -0.0000  -0.0000   0.0371   0.0480  -0.0079
 113 C_e :3d0    0.0000  -0.0000   0.0000  -0.0000  -0.0066   0.0241   0.0084
 114 C_e :3d1+  -0.0044   0.0070   0.0062  -0.0130   0.0000   0.0000  -0.0000
 115 C_e :3d2+   0.0000   0.0000   0.0000  -0.0000   0.0251   0.0468  -0.0392
 117 C_f :1s    -0.0000  -0.0000  -0.0000  -0.0000  -0.0021  -0.0229  -0.0135
 118 C_f :1s    -0.0000  -0.0000  -0.0000   0.0000   0.0351   0.0697   0.0922
 119 C_f :1s     0.0000  -0.0000   0.0000  -0.0000   0.4081   6.7269   4.2104
 120 C_f :2px   -0.0000   0.0000  -0.0000  -0.0000  -0.0004  -0.0149  -0.0077
 121 C_f :2py   -0.0000  -0.0000  -0.0000  -0.0000  -0.0000   0.0146   0.0090
 122 C_f :2pz   -0.1792   0.1456   0.1770  -0.1676  -0.0000  -0.0000   0.0000
 123 C_f :2px    0.0000  -0.0000   0.0000  -0.0000   0.1202   0.1532  -0.0353
 124 C_f :2py    0.0000   0.0000   0.0000   0.0000   0.0888   0.0438  -0.0936
 125 C_f :2pz   -0.0093   0.0042   0.0142  -0.0202  -0.0000  -0.0000   0.0000
 126 C_f :2px    0.0000  -0.0000   0.0000  -0.0000   2.3185  -1.3452  -3.1478
 127 C_f :2py    0.0000  -0.0000   0.0000  -0.0000   2.6683   0.4586  -2.2040
 128 C_f :2pz   -0.0255   0.0175   0.0519  -0.1278  -0.0000  -0.0000   0.0000
 130 C_f :3d1-   0.0085   0.0032  -0.0124  -0.0054   0.0000   0.0000  -0.0000
 132 C_f :3d1+   0.0139  -0.0009  -0.0164  -0.0044  -0.0000  -0.0000   0.0000
 134 C_f :3d2-   0.0000   0.0000   0.0000  -0.0000   0.0461   0.0206  -0.0068
 135 C_f :3d1-   0.0080  -0.0008  -0.0125  -0.0019  -0.0000  -0.0000   0.0000
 136 C_f :3d0   -0.0000   0.0000  -0.0000   0.0000  -0.0069  -0.0211  -0.0120
 137 C_f :3d1+   0.0079   0.0015  -0.0112  -0.0078   0.0000   0.0000  -0.0000
 138 C_f :3d2+   0.0000  -0.0000   0.0000  -0.0000  -0.0454  -0.0444   0.0295
 140 C_g :1s    -0.0000  -0.0000  -0.0000  -0.0000  -0.0021   0.0177   0.0158
 141 C_g :1s    -0.0000  -0.0000  -0.0000  -0.0000   0.0712  -0.1234  -0.0791
 142 C_g :1s    -0.0000   0.0000  -0.0000  -0.0000   0.3563  -5.8563  -5.9190
 145 C_g :2pz    0.1589   0.0745  -0.2489  -0.0655   0.0000   0.0000  -0.0000
 146 C_g :2px   -0.0000  -0.0000  -0.0000   0.0000   0.1358   0.1023  -0.0293
 147 C_g :2py    0.0000  -0.0000   0.0000   0.0000   0.1774   0.0857  -0.0627
 148 C_g :2pz    0.0095  -0.0003  -0.0173  -0.0052   0.0000   0.0000  -0.0000
 149 C_g :2px    0.0000  -0.0000   0.0000  -0.0000   3.0227  -0.2825  -2.5005
 150 C_g :2py    0.0000  -0.0000   0.0000  -0.0000   2.9705   1.1059  -1.1904
 151 C_g :2pz    0.0258   0.0062  -0.0687  -0.0342   0.0000   0.0000  -0.0000
 155 C_g :3d1+   0.0135  -0.0047  -0.0139   0.0092  -0.0000  -0.0000   0.0000
 157 C_g :3d2-   0.0000  -0.0000   0.0000  -0.0000   0.0244   0.0331   0.0426
 158 C_g :3d1-   0.0068  -0.0023  -0.0103   0.0079  -0.0000  -0.0000   0.0000
 159 C_g :3d0   -0.0000   0.0000  -0.0000   0.0000  -0.0038   0.0201   0.0166
[...]

       No.  Residual tot.,    conf., and orb.    Bnorm      Frequency 
      ----------------------------------------------------------------
         1    1.42368D-01  0.00D+00  1.42D-01  7.71D+01    0.00000D+00
         2    1.47764D-01  0.00D+00  1.48D-01  7.99D+01    1.57000D-02
         3    1.66275D-01  0.00D+00  1.66D-01  8.96D+01    3.14000D-02

 ** RSPCTL MICROITERATION NUMBER    7

       No.  Residual tot.,    conf., and orb.    Bnorm      Frequency 
      ----------------------------------------------------------------
         1    4.10037D-02  0.00D+00  4.10D-02  7.71D+01    0.00000D+00
         2    4.28097D-02  0.00D+00  4.28D-02  7.99D+01    1.57000D-02
         3    4.90918D-02  0.00D+00  4.91D-02  8.96D+01    3.14000D-02

 *** THE REQUESTED    3 SOLUTION VECTORS CONVERGED

 Convergence of RSP solution vectors, threshold = 1.00D-03
 ---------------------------------------------------------------
 (dimension of paired reduced space:   42)
 RSP solution vector no.    1; norm of residual   5.32D-04
 RSP solution vector no.    2; norm of residual   5.36D-04
 RSP solution vector no.    3; norm of residual   5.48D-04

 *** RSPCTL MICROITERATIONS CONVERGED

@ QRLRVE: SINGLET SOLUTION FOR SYMMETRY    1  ( A  )    LABEL   YDIPLEN     FREQUENCY   0.000000D+00

@ QRLRVE:  << XDIPLEN  ; YDIPLEN  >> (   0.00000):     1122.13919871    

@ QRLRVE:  << YDIPLEN  ; YDIPLEN  >> (   0.00000):     1194.20932806    

@ QRLRVE:  << ZDIPLEN  ; YDIPLEN  >> (   0.00000):   -2.660826378846E-13

@ QRLRVE: SINGLET SOLUTION FOR SYMMETRY    1  ( A  )    LABEL   YDIPLEN     FREQUENCY   0.157000D-01

@ QRLRVE:  << XDIPLEN  ; YDIPLEN  >> (   0.01570):     1153.61353475    

@ QRLRVE:  << YDIPLEN  ; YDIPLEN  >> (   0.01570):     1220.29647034    

@ QRLRVE:  << ZDIPLEN  ; YDIPLEN  >> (   0.01570):   -2.834508982995E-13

@ QRLRVE: SINGLET SOLUTION FOR SYMMETRY    1  ( A  )    LABEL   YDIPLEN     FREQUENCY   0.314000D-01

@ QRLRVE:  << XDIPLEN  ; YDIPLEN  >> (   0.03140):     1259.73968340    

@ QRLRVE:  << YDIPLEN  ; YDIPLEN  >> (   0.03140):     1308.17911361    

@ QRLRVE:  << ZDIPLEN  ; YDIPLEN  >> (   0.03140):   -3.411905918589E-13


 QRLRVE -- linear response calculation for symmetry  1  ( A  )
 QRLRVE -- operator label : ZDIPLEN 
 QRLRVE -- operator spin  :   0
 QRLRVE -- frequencies :  0.000000  0.015700  0.031400



 ---  SOLVING SETS OF LINEAR EQUATIONS FOR LINEAR RESPONSE PROPERTIES ---

 Operator symmetry = 1  ( A  ); triplet =   F


 ** RSPCTL MICROITERATION NUMBER    1

       No.  Residual tot.,    conf., and orb.    Bnorm      Frequency 
      ----------------------------------------------------------------
         1    4.17503D+00  0.00D+00  4.18D+00  1.13D+01    0.00000D+00
         2    4.17751D+00  0.00D+00  4.18D+00  1.13D+01    1.57000D-02
         3    4.18498D+00  0.00D+00  4.18D+00  1.14D+01    3.14000D-02

 ** RSPCTL MICROITERATION NUMBER    2

       No.  Residual tot.,    conf., and orb.    Bnorm      Frequency 
      ----------------------------------------------------------------
         1    9.25049D-01  0.00D+00  9.25D-01  1.18D+01    0.00000D+00
         2    9.26781D-01  0.00D+00  9.27D-01  1.18D+01    1.57000D-02
         3    9.32012D-01  0.00D+00  9.32D-01  1.19D+01    3.14000D-02

 ** RSPCTL MICROITERATION NUMBER    3

       No.  Residual tot.,    conf., and orb.    Bnorm      Frequency 
      ----------------------------------------------------------------
         1    1.88069D-01  0.00D+00  1.88D-01  1.18D+01    0.00000D+00
         2    1.88816D-01  0.00D+00  1.89D-01  1.18D+01    1.57000D-02
         3    1.91082D-01  0.00D+00  1.91D-01  1.19D+01    3.14000D-02

 ** RSPCTL MICROITERATION NUMBER    4

       No.  Residual tot.,    conf., and orb.    Bnorm      Frequency 
      ----------------------------------------------------------------
         1    5.67140D-02  0.00D+00  5.67D-02  1.18D+01    0.00000D+00
         2    5.72822D-02  0.00D+00  5.73D-02  1.18D+01    1.57000D-02
         3    5.90373D-02  0.00D+00  5.90D-02  1.19D+01    3.14000D-02

 ** RSPCTL MICROITERATION NUMBER    5

       No.  Residual tot.,    conf., and orb.    Bnorm      Frequency 
      ----------------------------------------------------------------
         1    1.92615D-02  0.00D+00  1.93D-02  1.18D+01    0.00000D+00
         2    1.95948D-02  0.00D+00  1.96D-02  1.18D+01    1.57000D-02
         3    2.06316D-02  0.00D+00  2.06D-02  1.19D+01    3.14000D-02

 ** RSPCTL MICROITERATION NUMBER    6

       No.  Residual tot.,    conf., and orb.    Bnorm      Frequency 
      ----------------------------------------------------------------
         1    6.79750D-03  0.00D+00  6.80D-03  1.18D+01    0.00000D+00
         2    6.97188D-03  0.00D+00  6.97D-03  1.18D+01    1.57000D-02
         3    7.51874D-03  0.00D+00  7.52D-03  1.19D+01    3.14000D-02

 *** THE REQUESTED    3 SOLUTION VECTORS CONVERGED

 Convergence of RSP solution vectors, threshold = 1.00D-03
 ---------------------------------------------------------------
 (dimension of paired reduced space:   36)
 RSP solution vector no.    1; norm of residual   5.76D-04
 RSP solution vector no.    2; norm of residual   5.90D-04
 RSP solution vector no.    3; norm of residual   6.32D-04

 *** RSPCTL MICROITERATIONS CONVERGED

@ QRLRVE: SINGLET SOLUTION FOR SYMMETRY    1  ( A  )    LABEL   ZDIPLEN     FREQUENCY   0.000000D+00

@ QRLRVE:  << XDIPLEN  ; ZDIPLEN  >> (   0.00000):    4.079408334768E-13

@ QRLRVE:  << YDIPLEN  ; ZDIPLEN  >> (   0.00000):   -2.869795974904E-14

@ QRLRVE:  << ZDIPLEN  ; ZDIPLEN  >> (   0.00000):     202.684689320    

@ QRLRVE: SINGLET SOLUTION FOR SYMMETRY    1  ( A  )    LABEL   ZDIPLEN     FREQUENCY   0.157000D-01

@ QRLRVE:  << XDIPLEN  ; ZDIPLEN  >> (   0.01570):    4.053585904990E-13

@ QRLRVE:  << YDIPLEN  ; ZDIPLEN  >> (   0.01570):   -3.799641104301E-14

@ QRLRVE:  << ZDIPLEN  ; ZDIPLEN  >> (   0.01570):     202.858293451    

@ QRLRVE: SINGLET SOLUTION FOR SYMMETRY    1  ( A  )    LABEL   ZDIPLEN     FREQUENCY   0.314000D-01

@ QRLRVE:  << XDIPLEN  ; ZDIPLEN  >> (   0.03140):    3.944122717673E-13

@ QRLRVE:  << YDIPLEN  ; ZDIPLEN  >> (   0.03140):   -6.921893392858E-14

@ QRLRVE:  << ZDIPLEN  ; ZDIPLEN  >> (   0.03140):     203.382266937    
 
 ======================================================================
 ---  L I N E A R   R E S P O N S E   F U N C T I O N S --- 
 ======================================================================

 The -<<A;B>>(omega_b) functions from vectors generated
 in a *QUADRA calculation of <<A;B,C>>(omega_b,omega_c)

 Note: the accuracy of off-diagonal elements will be linear
 in the convergence threshold THCLR =  1.00D-03


 Perturbation symmetry.     KSYMOP:           1
 Perturbation spin symmetry.TRPLET:           F
 Orbital variables.         KZWOPT:       89131
 Configuration variables.   KZCONF:           0
 Total number of variables. KZVAR :       89131

@ Singlet linear response function in a.u.

@ A operator, symmetry, frequency:   XDIPLEN    1 -0.000000
@ B operator, symmetry, frequency:   XDIPLEN    1  0.000000

@ Value of linear response -<<A;B>>(omega):    1646.392482965089

@ Singlet linear response function in a.u.

@ A operator, symmetry, frequency:   YDIPLEN    1 -0.000000
@ B operator, symmetry, frequency:   XDIPLEN    1  0.000000

@ Value of linear response -<<A;B>>(omega):    1122.120916375565

@ Singlet linear response function in a.u.

@ A operator, symmetry, frequency:   ZDIPLEN    1 -0.000000
@ B operator, symmetry, frequency:   XDIPLEN    1  0.000000

@ Value of linear response -<<A;B>>(omega):      -0.000000000000

@ Singlet linear response function in a.u.

@ A operator, symmetry, frequency:   XDIPLEN    1 -0.015700
@ B operator, symmetry, frequency:   XDIPLEN    1  0.015700

@ Value of linear response -<<A;B>>(omega):    1685.056990364254

@ Singlet linear response function in a.u.

@ A operator, symmetry, frequency:   YDIPLEN    1 -0.015700
@ B operator, symmetry, frequency:   XDIPLEN    1  0.015700

@ Value of linear response -<<A;B>>(omega):    1153.594693296203

@ Singlet linear response function in a.u.

@ A operator, symmetry, frequency:   ZDIPLEN    1 -0.015700
@ B operator, symmetry, frequency:   XDIPLEN    1  0.015700

@ Value of linear response -<<A;B>>(omega):      -0.000000000000

@ Singlet linear response function in a.u.

@ A operator, symmetry, frequency:   XDIPLEN    1 -0.000000
@ B operator, symmetry, frequency:   YDIPLEN    1  0.000000

@ Value of linear response -<<A;B>>(omega):    1122.139198705910

@ Singlet linear response function in a.u.

@ A operator, symmetry, frequency:   YDIPLEN    1 -0.000000
@ B operator, symmetry, frequency:   YDIPLEN    1  0.000000

@ Value of linear response -<<A;B>>(omega):    1194.209328056997

@ Singlet linear response function in a.u.

@ A operator, symmetry, frequency:   ZDIPLEN    1 -0.000000
@ B operator, symmetry, frequency:   YDIPLEN    1  0.000000

@ Value of linear response -<<A;B>>(omega):      -0.000000000000

@ Singlet linear response function in a.u.

@ A operator, symmetry, frequency:   XDIPLEN    1 -0.015700
@ B operator, symmetry, frequency:   YDIPLEN    1  0.015700

@ Value of linear response -<<A;B>>(omega):    1153.613534753308

@ Singlet linear response function in a.u.

@ A operator, symmetry, frequency:   YDIPLEN    1 -0.015700
@ B operator, symmetry, frequency:   YDIPLEN    1  0.015700

@ Value of linear response -<<A;B>>(omega):    1220.296470336187

@ Singlet linear response function in a.u.

@ A operator, symmetry, frequency:   ZDIPLEN    1 -0.015700
@ B operator, symmetry, frequency:   YDIPLEN    1  0.015700

@ Value of linear response -<<A;B>>(omega):      -0.000000000000

@ Singlet linear response function in a.u.

@ A operator, symmetry, frequency:   XDIPLEN    1 -0.000000
@ B operator, symmetry, frequency:   ZDIPLEN    1  0.000000

@ Value of linear response -<<A;B>>(omega):       0.000000000000

@ Singlet linear response function in a.u.

@ A operator, symmetry, frequency:   YDIPLEN    1 -0.000000
@ B operator, symmetry, frequency:   ZDIPLEN    1  0.000000

@ Value of linear response -<<A;B>>(omega):      -0.000000000000

@ Singlet linear response function in a.u.

@ A operator, symmetry, frequency:   ZDIPLEN    1 -0.000000
@ B operator, symmetry, frequency:   ZDIPLEN    1  0.000000

@ Value of linear response -<<A;B>>(omega):     202.684689320374

@ Singlet linear response function in a.u.

@ A operator, symmetry, frequency:   XDIPLEN    1 -0.015700
@ B operator, symmetry, frequency:   ZDIPLEN    1  0.015700

@ Value of linear response -<<A;B>>(omega):       0.000000000000

@ Singlet linear response function in a.u.

@ A operator, symmetry, frequency:   YDIPLEN    1 -0.015700
@ B operator, symmetry, frequency:   ZDIPLEN    1  0.015700

@ Value of linear response -<<A;B>>(omega):      -0.000000000000

@ Singlet linear response function in a.u.

@ A operator, symmetry, frequency:   ZDIPLEN    1 -0.015700
@ B operator, symmetry, frequency:   ZDIPLEN    1  0.015700

@ Value of linear response -<<A;B>>(omega):     202.858293451483


  Results from quadratic response calculation
 --------------------------------------------

@ B-freq = 0.000000  C-freq = 0.000000     beta(X;X,X) =  37705.23196547
@ B-freq = 0.000000  C-freq = 0.000000     beta(Y;X,X) =  40515.69673609
@ B-freq = 0.000000  C-freq = 0.000000     beta(Z;X,X) =     -0.00000000
@ B-freq = 0.015700  C-freq = 0.000000     beta(X;X,X) =  40259.62507967
@ B-freq = 0.015700  C-freq = 0.000000     beta(Y;X,X) =  42928.37720826
@ B-freq = 0.015700  C-freq = 0.000000     beta(Z;X,X) =     -0.00000000
@ B-freq = 0.000000  C-freq = 0.000000     beta(X;Y,X) = beta(Y,X,X)
@ B-freq = 0.000000  C-freq = 0.000000     beta(X;Y,X) =  40515.69547550
@ B-freq = 0.000000  C-freq = 0.000000     beta(Y;Y,X) =  42127.02176662
@ B-freq = 0.000000  C-freq = 0.000000     beta(Z;Y,X) =     -0.00000000
@ B-freq = 0.015700  C-freq = 0.000000     beta(X;Y,X) =  42928.37589380
@ B-freq = 0.015700  C-freq = 0.000000     beta(Y;Y,X) =  44379.17184917
@ B-freq = 0.015700  C-freq = 0.000000     beta(Z;Y,X) =     -0.00000000
@ B-freq = 0.000000  C-freq = 0.000000     beta(X;Z,X) = beta(Z,X,X)
@ B-freq = 0.000000  C-freq = 0.000000     beta(Y;Z,X) = beta(Z,Y,X)
@ B-freq = 0.000000  C-freq = 0.000000     beta(X;Z,X) =     -0.00000000
@ B-freq = 0.000000  C-freq = 0.000000     beta(Y;Z,X) =     -0.00000000
@ B-freq = 0.000000  C-freq = 0.000000     beta(Z;Z,X) =    -21.23303858
@ B-freq = 0.015700  C-freq = 0.000000     beta(X;Z,X) =     -0.00000000
@ B-freq = 0.015700  C-freq = 0.000000     beta(Y;Z,X) =     -0.00000000
@ B-freq = 0.015700  C-freq = 0.000000     beta(Z;Z,X) =    -21.65425590
@ B-freq = 0.000000  C-freq = 0.015700     beta(X;X,X) = beta(X,X,X)
@ B-freq = 0.000000  C-freq = 0.015700     beta(Y;X,X) = beta(Y,X,X)
@ B-freq = 0.000000  C-freq = 0.015700     beta(Z;X,X) = beta(Z,X,X)
@ B-freq = 0.015700  C-freq = 0.015700     beta(X;X,X) =  46133.07153660
@ B-freq = 0.015700  C-freq = 0.015700     beta(Y;X,X) =  48135.09489352
@ B-freq = 0.015700  C-freq = 0.015700     beta(Z;X,X) =     -0.00000000
@ B-freq = 0.000000  C-freq = 0.015700     beta(X;Y,X) =  43198.93633441
@ B-freq = 0.000000  C-freq = 0.015700     beta(Y;Y,X) =  44625.33665933
@ B-freq = 0.000000  C-freq = 0.015700     beta(Z;Y,X) =     -0.00000000
@ B-freq = 0.015700  C-freq = 0.015700     beta(X;Y,X) =  49056.48660759
@ B-freq = 0.015700  C-freq = 0.015700     beta(Y;Y,X) =  49776.39092567
@ B-freq = 0.015700  C-freq = 0.015700     beta(Z;Y,X) =     -0.00000000
@ B-freq = 0.000000  C-freq = 0.015700     beta(X;Z,X) =     -0.00000000
@ B-freq = 0.000000  C-freq = 0.015700     beta(Y;Z,X) =     -0.00000000
@ B-freq = 0.000000  C-freq = 0.015700     beta(Z;Z,X) =    -21.37300701
@ B-freq = 0.015700  C-freq = 0.015700     beta(X;Z,X) =     -0.00000000
@ B-freq = 0.015700  C-freq = 0.015700     beta(Y;Z,X) =     -0.00000000
@ B-freq = 0.015700  C-freq = 0.015700     beta(Z;Z,X) =    -22.24920342
@ B-freq = 0.000000  C-freq = 0.000000     beta(X;X,Y) = beta(Y,X,X)
@ B-freq = 0.000000  C-freq = 0.000000     beta(Y;X,Y) = beta(Y,Y,X)
@ B-freq = 0.000000  C-freq = 0.000000     beta(Z;X,Y) = beta(Z,Y,X)
@ B-freq = 0.015700  C-freq = 0.000000     beta(X;X,Y) = beta(X,Y,X)
@ B-freq = 0.015700  C-freq = 0.000000     beta(Y;X,Y) = beta(Y,Y,X)
@ B-freq = 0.015700  C-freq = 0.000000     beta(Z;X,Y) = beta(Z,Y,X)
@ B-freq = 0.000000  C-freq = 0.000000     beta(X;Y,Y) = beta(Y,Y,X)
@ B-freq = 0.000000  C-freq = 0.000000     beta(X;Y,Y) =  42127.02090116
@ B-freq = 0.000000  C-freq = 0.000000     beta(Y;Y,Y) =  42714.45534651
@ B-freq = 0.000000  C-freq = 0.000000     beta(Z;Y,Y) =     -0.00000000
@ B-freq = 0.015700  C-freq = 0.000000     beta(X;Y,Y) =  44625.33575678
@ B-freq = 0.015700  C-freq = 0.000000     beta(Y;Y,Y) =  45019.85325833
@ B-freq = 0.015700  C-freq = 0.000000     beta(Z;Y,Y) =     -0.00000000
@ B-freq = 0.000000  C-freq = 0.000000     beta(X;Z,Y) = beta(Z,Y,X)
@ B-freq = 0.000000  C-freq = 0.000000     beta(Y;Z,Y) = beta(Z,Y,Y)
@ B-freq = 0.000000  C-freq = 0.000000     beta(X;Z,Y) =     -0.00000000
@ B-freq = 0.000000  C-freq = 0.000000     beta(Y;Z,Y) =     -0.00000000
@ B-freq = 0.000000  C-freq = 0.000000     beta(Z;Z,Y) =    -26.51852815
@ B-freq = 0.015700  C-freq = 0.000000     beta(X;Z,Y) =     -0.00000000
@ B-freq = 0.015700  C-freq = 0.000000     beta(Y;Z,Y) =     -0.00000000
@ B-freq = 0.015700  C-freq = 0.000000     beta(Z;Z,Y) =    -26.87643666
@ B-freq = 0.000000  C-freq = 0.015700     beta(X;X,Y) = beta(X,Y,X)
@ B-freq = 0.000000  C-freq = 0.015700     beta(Y;X,Y) = beta(Y,Y,X)
@ B-freq = 0.000000  C-freq = 0.015700     beta(Z;X,Y) = beta(Z,Y,X)
@ B-freq = 0.015700  C-freq = 0.015700     beta(X;X,Y) = beta(X,Y,X)
@ B-freq = 0.015700  C-freq = 0.015700     beta(Y;X,Y) = beta(Y,Y,X)
@ B-freq = 0.015700  C-freq = 0.015700     beta(Z;X,Y) = beta(Z,Y,X)
@ B-freq = 0.000000  C-freq = 0.015700     beta(X;Y,Y) = beta(X,Y,Y)
@ B-freq = 0.000000  C-freq = 0.015700     beta(Y;Y,Y) = beta(Y,Y,Y)
@ B-freq = 0.000000  C-freq = 0.015700     beta(Z;Y,Y) = beta(Z,Y,Y)
@ B-freq = 0.015700  C-freq = 0.015700     beta(X;Y,Y) =  50615.66303475
@ B-freq = 0.015700  C-freq = 0.015700     beta(Y;Y,Y) =  50263.52251327
@ B-freq = 0.015700  C-freq = 0.015700     beta(Z;Y,Y) =     -0.00000000
@ B-freq = 0.000000  C-freq = 0.015700     beta(X;Z,Y) =     -0.00000000
@ B-freq = 0.000000  C-freq = 0.015700     beta(Y;Z,Y) =     -0.00000000
@ B-freq = 0.000000  C-freq = 0.015700     beta(Z;Z,Y) =    -26.63147197
@ B-freq = 0.015700  C-freq = 0.015700     beta(X;Z,Y) =     -0.00000000
@ B-freq = 0.015700  C-freq = 0.015700     beta(Y;Z,Y) =     -0.00000000
@ B-freq = 0.015700  C-freq = 0.015700     beta(Z;Z,Y) =    -27.37414293
@ B-freq = 0.000000  C-freq = 0.000000     beta(X;X,Z) = beta(Z,X,X)
@ B-freq = 0.000000  C-freq = 0.000000     beta(Y;X,Z) = beta(Z,Y,X)
@ B-freq = 0.000000  C-freq = 0.000000     beta(Z;X,Z) = beta(Z,Z,X)
@ B-freq = 0.015700  C-freq = 0.000000     beta(X;X,Z) = beta(X,Z,X)
@ B-freq = 0.015700  C-freq = 0.000000     beta(Y;X,Z) = beta(Y,Z,X)
@ B-freq = 0.015700  C-freq = 0.000000     beta(Z;X,Z) = beta(Z,Z,X)
@ B-freq = 0.000000  C-freq = 0.000000     beta(X;Y,Z) = beta(Z,Y,X)
@ B-freq = 0.000000  C-freq = 0.000000     beta(Y;Y,Z) = beta(Z,Y,Y)
@ B-freq = 0.000000  C-freq = 0.000000     beta(Z;Y,Z) = beta(Z,Z,Y)
@ B-freq = 0.015700  C-freq = 0.000000     beta(X;Y,Z) = beta(X,Z,Y)
@ B-freq = 0.015700  C-freq = 0.000000     beta(Y;Y,Z) = beta(Y,Z,Y)
@ B-freq = 0.015700  C-freq = 0.000000     beta(Z;Y,Z) = beta(Z,Z,Y)
@ B-freq = 0.000000  C-freq = 0.000000     beta(X;Z,Z) = beta(Z,Z,X)
@ B-freq = 0.000000  C-freq = 0.000000     beta(Y;Z,Z) = beta(Z,Z,Y)
@ B-freq = 0.000000  C-freq = 0.000000     beta(X;Z,Z) =    -21.23286627
@ B-freq = 0.000000  C-freq = 0.000000     beta(Y;Z,Z) =    -26.51838734
@ B-freq = 0.000000  C-freq = 0.000000     beta(Z;Z,Z) =     -0.00000000
@ B-freq = 0.015700  C-freq = 0.000000     beta(X;Z,Z) =    -21.37282858
@ B-freq = 0.015700  C-freq = 0.000000     beta(Y;Z,Z) =    -26.63132621
@ B-freq = 0.015700  C-freq = 0.000000     beta(Z;Z,Z) =     -0.00000000
@ B-freq = 0.000000  C-freq = 0.015700     beta(X;X,Z) = beta(X,Z,X)
@ B-freq = 0.000000  C-freq = 0.015700     beta(Y;X,Z) = beta(Y,Z,X)
@ B-freq = 0.000000  C-freq = 0.015700     beta(Z;X,Z) = beta(Z,Z,X)
@ B-freq = 0.015700  C-freq = 0.015700     beta(X;X,Z) = beta(X,Z,X)
@ B-freq = 0.015700  C-freq = 0.015700     beta(Y;X,Z) = beta(Y,Z,X)
@ B-freq = 0.015700  C-freq = 0.015700     beta(Z;X,Z) = beta(Z,Z,X)
@ B-freq = 0.000000  C-freq = 0.015700     beta(X;Y,Z) = beta(X,Z,Y)
@ B-freq = 0.000000  C-freq = 0.015700     beta(Y;Y,Z) = beta(Y,Z,Y)
@ B-freq = 0.000000  C-freq = 0.015700     beta(Z;Y,Z) = beta(Z,Z,Y)
@ B-freq = 0.015700  C-freq = 0.015700     beta(X;Y,Z) = beta(X,Z,Y)
@ B-freq = 0.015700  C-freq = 0.015700     beta(Y;Y,Z) = beta(Y,Z,Y)
@ B-freq = 0.015700  C-freq = 0.015700     beta(Z;Y,Z) = beta(Z,Z,Y)
@ B-freq = 0.000000  C-freq = 0.015700     beta(X;Z,Z) = beta(X,Z,Z)
@ B-freq = 0.000000  C-freq = 0.015700     beta(Y;Z,Z) = beta(Y,Z,Z)
@ B-freq = 0.000000  C-freq = 0.015700     beta(Z;Z,Z) = beta(Z,Z,Z)
@ B-freq = 0.015700  C-freq = 0.015700     beta(X;Z,Z) =    -21.31742194
@ B-freq = 0.015700  C-freq = 0.015700     beta(Y;Z,Z) =    -26.56614419
@ B-freq = 0.015700  C-freq = 0.015700     beta(Z;Z,Z) =     -0.00000000

  Total CPU  time used in RESPONSE: 12 minutes 49 seconds
  Total wall time used in RESPONSE: 12 minutes 49 seconds


                   .-------------------------------------------.
                   | End of Dynamic Property Section (RESPONS) |
                   `-------------------------------------------'

  Total CPU  time used in DALTON: 17 minutes 31 seconds
  Total wall time used in DALTON: 17 minutes 32 seconds

 
     Date and time (Linux)  : Tue May 27 13:31:16 2025
     Host name              : xm059                                   
