

     ************************************************************************
     *************** Dalton - An Electronic Structure Program ***************
     ************************************************************************

    This is output from DALTON release Dalton2020.0 (2020)
         ( Web site: http://daltonprogram.org )

   ----------------------------------------------------------------------------

    NOTE:
     
    Dalton is an experimental code for the evaluation of molecular
    properties using (MC)SCF, DFT, CI, and CC wave functions.
    The authors accept no responsibility for the performance of
    the code or for the correctness of the results.
     
    The code (in whole or part) is provided under a licence and
    is not to be reproduced for further distribution without
    the written permission of the authors or their representatives.
     
    See the home page "http://daltonprogram.org" for further information.
     
    If results obtained with this code are published,
    the appropriate citations would be both of:
     
       K. Aidas, C. Angeli, K. L. Bak, V. Bakken, R. Bast,
       L. Boman, O. Christiansen, R. Cimiraglia, S. Coriani,
       P. Dahle, E. K. Dalskov, U. Ekstroem,
       T. Enevoldsen, J. J. Eriksen, P. Ettenhuber, B. Fernandez,
       L. Ferrighi, H. Fliegl, L. Frediani, K. Hald, A. Halkier,
       C. Haettig, H. Heiberg, T. Helgaker, A. C. Hennum,
       H. Hettema, E. Hjertenaes, S. Hoest, I.-M. Hoeyvik,
       M. F. Iozzi, B. Jansik, H. J. Aa. Jensen, D. Jonsson,
       P. Joergensen, J. Kauczor, S. Kirpekar,
       T. Kjaergaard, W. Klopper, S. Knecht, R. Kobayashi, H. Koch,
       J. Kongsted, A. Krapp, K. Kristensen, A. Ligabue,
       O. B. Lutnaes, J. I. Melo, K. V. Mikkelsen, R. H. Myhre,
       C. Neiss, C. B. Nielsen, P. Norman, J. Olsen,
       J. M. H. Olsen, A. Osted, M. J. Packer, F. Pawlowski,
       T. B. Pedersen, P. F. Provasi, S. Reine, Z. Rinkevicius,
       T. A. Ruden, K. Ruud, V. Rybkin, P. Salek, C. C. M. Samson,
       A. Sanchez de Meras, T. Saue, S. P. A. Sauer,
       B. Schimmelpfennig, K. Sneskov, A. H. Steindal,
       K. O. Sylvester-Hvid, P. R. Taylor, A. M. Teale,
       E. I. Tellgren, D. P. Tew, A. J. Thorvaldsen, L. Thoegersen,
       O. Vahtras, M. A. Watson, D. J. D. Wilson, M. Ziolkowski
       and H. Agren,
       "The Dalton quantum chemistry program system",
       WIREs Comput. Mol. Sci. 2014, 4:269–284 (doi: 10.1002/wcms.1172)
     
    and
     
       Dalton, a molecular electronic structure program,
       Release Dalton2020.0 (2020), see http://daltonprogram.org
   ----------------------------------------------------------------------------

    Authors in alphabetical order (Major contribution(s) in parenthesis):

  Kestutis Aidas,           Vilnius University,           Lithuania   (QM/MM)
  Celestino Angeli,         University of Ferrara,        Italy       (NEVPT2)
  Keld L. Bak,              UNI-C,                        Denmark     (AOSOPPA, non-adiabatic coupling, magnetic properties)
  Vebjoern Bakken,          University of Oslo,           Norway      (DALTON; geometry optimizer, symmetry detection)
  Radovan Bast,             UiT The Arctic U. of Norway,  Norway      (DALTON installation and execution frameworks)
  Pablo Baudin,             University of Valencia,       Spain       (Cholesky excitation energies)
  Linus Boman,              NTNU,                         Norway      (Cholesky decomposition and subsystems)
  Bruno N. Cabral Tenorio,  Technical Univ. of Denmark,   Denmark     (Lanczos-based CC methods)
  Ove Christiansen,         Aarhus University,            Denmark     (CC module)
  Renzo Cimiraglia,         University of Ferrara,        Italy       (NEVPT2)
  Sonia Coriani,            Technical Univ. of Denmark,   Denmark     (CC and RESPONS modules)
  Janusz Cukras,            University of Warsaw,         Poland      (MChD in RESPONS)
  Paal Dahle,               University of Oslo,           Norway      (Parallelization)
  Erik K. Dalskov,          UNI-C,                        Denmark     (SOPPA)
  Thomas Enevoldsen,        Univ. of Southern Denmark,    Denmark     (SOPPA)
  Janus J. Eriksen,         Aarhus University,            Denmark     (Polarizable embedding, TDA)
  Rasmus Faber,             Technical Univ. of Denmark,   Denmark     (Vib.avg. NMR w. SOPPA, parallel AO-SOPPA, CVS-CC and EOMCC)
  Tobias Fahleson,          KTH Stockholm,                Sweden      (Damped cubic response)
  Berta Fernandez,          U. of Santiago de Compostela, Spain       (Doublet spin, ESR in RESPONS)
  Lara Ferrighi,            Aarhus University,            Denmark     (PCM Cubic response)
  Heike Fliegl,             University of Oslo,           Norway      (CCSD(R12))
  Luca Frediani,            UiT The Arctic U. of Norway,  Norway      (PCM)
  Emmanuel Fromager,        Univ. Strasbourg,             France      (MC-srDFT)
  Bin Gao,                  UiT The Arctic U. of Norway,  Norway      (Gen1Int library)
  Andre S. P. Gomes,        CNRS/Universite de Lille,     France      (Frozen density embedding)
  Christof Haettig,         Ruhr-University Bochum,       Germany     (CC module)
  Kasper Hald,              Aarhus University,            Denmark     (CC module)
  Asger Halkier,            Aarhus University,            Denmark     (CC module)
  Frederik Beyer Hansen,    University of Copenhagen,     Denmark     (Parallel AO-SOPPA)
  Erik D. Hedegaard,        Univ. of Southern Denmark,    Denmark     (Polarizable embedding, QM/MM, and MC-srDFT)
  Hanne Heiberg,            University of Oslo,           Norway      (Geometry analysis, selected one-electron integrals)
  Trygve Helgaker,          University of Oslo,           Norway      (DALTON; ABACUS, ERI, DFT modules, London, and much more)
  Alf Christian Hennum,     University of Oslo,           Norway      (Parity violation)
  Hinne Hettema,            University of Auckland,       New Zealand (Quadratic response in RESPONS; SIRIUS supersymmetry)
  Eirik Hjertenaes,         NTNU,                         Norway      (Cholesky decomposition)
  Pi A. B. Haase,           University of Copenhagen,     Denmark     (Triplet AO-SOPPA)
  Maria Francesca Iozzi,    University of Oslo,           Norway      (RPA)
  Christoph Jacob           TU Braunschweig               Germany     (Frozen density embedding)
  Brano Jansik              Technical Univ. of Ostrava    Czech Rep.  (DFT cubic response)
  Hans Joergen Aa. Jensen,  Univ. of Southern Denmark,    Denmark     (DALTON; SIRIUS, RESPONS, ABACUS, MC-srDFT, and much more)
  Dan Jonsson,              UiT The Arctic U. of Norway,  Norway      (Cubic response in RESPONS module)
  Poul Joergensen,          Aarhus University,            Denmark     (RESPONS, ABACUS, and CC modules)
  Maciej Kaminski,          University of Warsaw,         Poland      (CPPh in RESPONS)
  Joanna Kauczor,           Linkoeping University,        Sweden      (Complex polarization propagator (CPP) module)
  Sheela Kirpekar,          Univ. of Southern Denmark,    Denmark     (Mass-velocity & Darwin integrals)
  Erik Kjellgren,           Univ. of Southern Denmark,    Denmark     (MC-srDFT)
  Wim Klopper,              KIT Karlsruhe,                Germany     (R12 code in CC, SIRIUS, and ABACUS modules)
  Stefan Knecht,            ETH Zurich,                   Switzerland (Parallel CI and MCSCF, MC-srDFT)
  Rika Kobayashi,           Australian National Univ.,    Australia   (DIIS in CC, London in MCSCF)
  Henrik Koch,              NTNU,                         Norway      (CC module, Cholesky decomposition)
  Jacob Kongsted,           Univ. of Southern Denmark,    Denmark     (Polarizable embedding, polarizable density embedding, QM/MM)
  Andrea Ligabue,           University of Modena,         Italy       (CTOCD, AOSOPPA)
  Nanna H. List             Univ. of Southern Denmark,    Denmark     (Polarizable embedding)
  Ola B. Lutnaes,           University of Oslo,           Norway      (DFT Hessian)
  Juan I. Melo,             University of Buenos Aires,   Argentina   (LRESC, Relativistic Effects on NMR Shieldings)
  Kurt V. Mikkelsen,        University of Copenhagen,     Denmark     (MC-SCRF and QM/MM)
  Rolf H. Myhre,            NTNU,                         Norway      (Subsystems and CC3)
  Christian Neiss,          Univ. Erlangen-Nuernberg,     Germany     (CCSD(R12))
  Christian B. Nielsen,     University of Copenhagen,     Denmark     (QM/MM)
  Patrick Norman,           KTH Stockholm,                Sweden      (Cubic response and complex frequency response in RESPONS)
  Jeppe Olsen,              Aarhus University,            Denmark     (SIRIUS CI/density modules)
  Jogvan Magnus H. Olsen,   Aarhus University,            Denmark     (Polarizable embedding and polarizable density embedding)
  Anders Osted,             Copenhagen University,        Denmark     (QM/MM)
  Martin J. Packer,         University of Sheffield,      UK          (SOPPA)
  Filip Pawlowski,          Kazimierz Wielki University,  Poland      (CC3)
  Morten N. Pedersen,       Univ. of Southern Denmark,    Denmark     (Polarizable embedding)
  Thomas B. Pedersen,       University of Oslo,           Norway      (Cholesky decomposition)
  Patricio F. Provasi,      University of Northeastern,   Argentina   (Analysis of coupling constants in localized orbitals)
  Peter Reinholdt,          Univ. of Southern Denmark,    Denmark     (Polarizable embedding and polarizable density embedding)
  Zilvinas Rinkevicius,     KTH Stockholm,                Sweden      (open-shell DFT, ESR)
  Elias Rudberg,            KTH Stockholm,                Sweden      (DFT grid and basis info)
  Torgeir A. Ruden,         University of Oslo,           Norway      (Numerical derivatives in ABACUS)
  Kenneth Ruud,             UiT The Arctic U. of Norway,  Norway      (DALTON; ABACUS magnetic properties and much more)
  Pawel Salek,              KTH Stockholm,                Sweden      (DALTON; DFT code)
  Claire C. M. Samson       University of Karlsruhe       Germany     (Boys localization, r12 integrals in ERI)
  Alfredo Sanchez de Meras, University of Valencia,       Spain       (CC module, Cholesky decomposition)
  Trond Saue,               Paul Sabatier University,     France      (direct Fock matrix construction)
  Stephan P. A. Sauer,      University of Copenhagen,     Denmark     (SOPPA(CCSD), SOPPA prop., AOSOPPA, vibrational g-factors)
  Bernd Schimmelpfennig,    Forschungszentrum Karlsruhe,  Germany     (AMFI module)
  Anna K. Schnack-Petersen, University of Copenhagen,     Denmark     (RPA(D) and HRPA(D) properties in AOSOPPA)
  Kristian Sneskov,         Aarhus University,            Denmark     (Polarizable embedding, QM/MM)
  Arnfinn H. Steindal,      UiT The Arctic U. of Norway,  Norway      (parallel QM/MM, polarizable embedding)
  Casper Steinmann,         Aalborg University,           Denmark     (QFIT, polarizable embedding)
  K. O. Sylvester-Hvid,     University of Copenhagen,     Denmark     (MC-SCRF)
  Peter R. Taylor,          VLSCI/Univ. of Melbourne,     Australia   (Symmetry handling ABACUS, integral transformation)
  Andrew M. Teale,          University of Nottingham,     England     (DFT-AC, DFT-D)
  David P. Tew,             University of Bristol,        England     (CCSD(R12))
  Julien Toulouse,          Sorbonne Univ.,               France      (MC-srDFT)
  Olav Vahtras,             KTH Stockholm,                Sweden      (Triplet response, spin-orbit, ESR, TDDFT, open-shell DFT)
  Lucas Visscher,           Vrije Universiteit Amsterdam, Netherlands (Frozen density embedding)
  David J. Wilson,          La Trobe University,          Australia   (DFT Hessian and DFT magnetizabilities)
  Hans Agren,               KTH Stockholm,                Sweden      (SIRIUS module, RESPONS, MC-SCRF solvation)
 --------------------------------------------------------------------------------

     Date and time (Linux)  : Mon Jun  2 13:23:54 2025
     Host name              : xm054                                   

 * Work memory size             :   131072000 = 1000.00 megabytes.

 * Directories for basis set searches:
   1) /gpfs/projects/rjh/adrian/summer2025/beta_projects/raw_data/NLO/dalton/hf/n13/dipole
   2) /gpfs/projects/rjh/adrian/dalton/build/basis


Compilation information
-----------------------

 Who compiled             | ahurtado
 Host                     | milan2
 System                   | Linux-5.14.0-427.42.1.el9_4.x86_64
 CMake generator          | Unix Makefiles
 Processor                | x86_64
 64-bit integers          | OFF
 MPI                      | ON
 Fortran compiler         | /gpfs/software/openmpi/milan/gcc13.2/4.1.6/bin/mpi
                          | f90
 Fortran compiler version | GNU Fortran (GCC) 13.2.0
 C compiler               | /gpfs/software/openmpi/milan/gcc13.2/4.1.6/bin/mpi
                          | cc
 C compiler version       | gcc (GCC) 13.2.0
 C++ compiler             | /gpfs/software/openmpi/milan/gcc13.2/4.1.6/bin/mpi
                          | cxx
 C++ compiler version     | unknown
 BLAS                     | /gpfs/software/intel/oneAPI/2024_2/mkl/2024.2/lib/
                          | intel64/libmkl_gf_lp64.so;/gpfs/software/intel/one
                          | API/2024_2/mkl/2024.2/lib/intel64/libmkl_sequentia
                          | l.so;/gpfs/software/intel/oneAPI/2024_2/mkl/2024.2
                          | /lib/intel64/libmkl_core.so;/usr/lib64/libpthread.
                          | a;/usr/lib64/libm.so
 LAPACK                   | /gpfs/software/intel/oneAPI/2024_2/mkl/2024.2/lib/
                          | intel64/libmkl_lapack95_lp64.a;/gpfs/software/inte
                          | l/oneAPI/2024_2/mkl/2024.2/lib/intel64/libmkl_gf_l
                          | p64.so
 Static linking           | OFF
 Last Git revision        | 66052b3af5ea7225e31178bf9a8b031913c72190
 Git branch               | (HEAD detached at Dalton2020.0)
 Configuration time       | 2025-04-10 16:02:31.569498

 * MPI parallel run using 576 processes.


   Content of the .dal input file
 ----------------------------------

**DALTON INPUT
.RUN RESPONSE
.DIRECT
**WAVE FUNCTIONS
.HF
**PROPERTIES
**RESPONSE
*QUADRA
.DIPLEN
.FREQUENCIES
2
0.0 0.0157
**END OF DALTON INPUT


   Content of the .mol file
 ----------------------------

BASIS
d-aug-cc-pVTZ
blah
blah
Atomtype=4 Angstrom Charge=0 Nosymmetry
Charge=6 Atoms=26
C_a -1.7583020021988636 -1.0203010023650265 0.0
C_b -0.4366050026429676 -0.6337210000257919 0.0
C_c 0.0 0.7351749977332912 0.0
C_d 1.3230230012268485 1.1180229989613641 0.0
C_e 1.7644539994874566 2.485270001155418 0.0
C_f 3.0888209997021927 2.863549001678212 0.0
C_g 3.5364370000340233 4.228928997879985 0.0
C_h 4.862381001254277 4.6009619980744825 0.0
C_i 5.318678000265757 5.9639239983886805 0.0
C_j 6.646634002034016 6.326845000940754 0.0
C_k 7.1159720018910715 7.686323999188499 0.0
C_l 8.446706998948253 8.034876999079117 0.0
C_m 8.937708000363315 9.388409998142839 0.0
C_n 10.273052998776057 9.710211999929031 0.0
C_o 10.804856997493873 11.049894002466123 0.0
C_p 12.151374001053597 11.300641999023139 0.0
C_q -8.70121400052949 -8.127067998427126 0.0
C_r -7.3953789979033004 -7.711870002574732 0.0
C_s -6.988771998270566 -6.328530001723197 0.0
C_t -5.6752670006092565 -5.925904002246334 0.0
C_u -5.255487002167518 -4.549206000905155 0.0
C_v -3.9377879999394994 -4.15421500197447 0.0
C_w -3.5106020023894984 -2.781228998845891 0.0
C_x -2.190510002605337 -2.3909570011926213 0.0
C_y -10.357511999395172 -9.950730000858867 0.0
C_z -9.073369002529908 -9.525026001129755 0.0
Charge=7 Atoms=2
N_a 12.743751999600235 12.534732002110225 0.0
N_b -10.679787000939353 -11.373654002265976 0.0
Charge=8 Atoms=2
O_a -11.886295001905696 -11.646209000083564 0.0
O_b -9.758822001538523 -12.193259001707236 0.0
Charge=1 Atoms=28
H_a -2.5340560018134046 -0.24059700179561624 0.0
H_b 0.33803699985638774 -1.4148860006643689 0.0
H_c -0.7732929974950549 1.5173750002029012 0.0
H_d 2.095124000596009 0.33428100055872206 0.0
H_e 0.9938920009083159 3.2701870005119478 0.0
H_f 3.8578410023483016 2.0766910014800333 0.0
H_g 2.769390997720421 5.017283998072973 0.0
H_h 5.627201998609036 3.8098829999800783 0.0
H_i 4.556570999363134 6.757031999494869 0.0
H_j 7.405249999710761 5.529587001644696 0.0
H_k 6.361358002121917 8.486479000291457 0.0
H_l 9.195025001726245 7.22752000197438 0.0
H_m 8.196295998314309 10.200475000222552 0.0
H_n 11.000552000604657 8.88356500121564 0.0
H_o 10.099687998638469 11.892268999855936 0.0
H_p 12.855938002187587 10.459505001134142 0.0
H_q -9.50211899920136 -7.3752920024976545 0.0
H_r -6.602321998896677 -8.47388900130722 0.0
H_s -7.778012999867379 -5.5631559983079715 0.0
H_t -4.889834000554602 -6.696097000264702 0.0
H_u -6.037967997735994 -3.776555001202085 0.0
H_v -3.157412997375187 -4.929573002406951 0.0
H_w -4.289116999976026 -2.0043860001577403 0.0
H_x -1.413337998569996 -3.169558000659427 0.0
H_y -11.246298002495534 -9.316888999317012 0.0
H_z -8.28369200124568 -10.285983999554848 0.0
H_{ 12.185428999358924 13.377295000287672 0.0
H_| 13.747297002472301 12.629961997386074 0.0


       *******************************************************************
       *********** Output from DALTON general input processing ***********
       *******************************************************************

 --------------------------------------------------------------------------------
   Overall default print level:    0
   Print level for DALTON.STAT:    1

    Parallel calculation using MPI
    AO-direct calculation (in sections where implemented)
    HERMIT 1- and 2-electron integral sections will be executed
    "Old" integral transformation used (limited to max 255 basis functions)
    Wave function sections will be executed (SIRIUS module)
    Dynamic molecular response properties section will be executed (RESPONSE module)
 --------------------------------------------------------------------------------


   ****************************************************************************
   *************** Output of molecule and basis set information ***************
   ****************************************************************************


    The two title cards from your ".mol" input:
    ------------------------------------------------------------------------
 1: blah                                                                    
 2: blah                                                                    
    ------------------------------------------------------------------------

  Coordinates are entered in Angstrom and converted to atomic units.
          - Conversion factor : 1 bohr = 0.52917721 A

  Atomic type no.    1
  --------------------
  Nuclear charge:   6.00000
  Number of symmetry independent centers:   26
  Number of basis sets to read;    2
  Basis set file used for this atomic type with Z =   6 :
     "/gpfs/projects/rjh/adrian/dalton/build/basis/aug-cc-pVTZ"

  Atomic type no.    2
  --------------------
  Nuclear charge:   7.00000
  Number of symmetry independent centers:    2
  Number of basis sets to read;    2
  Basis set file used for this atomic type with Z =   7 :
     "/gpfs/projects/rjh/adrian/dalton/build/basis/aug-cc-pVTZ"

  Atomic type no.    3
  --------------------
  Nuclear charge:   8.00000
  Number of symmetry independent centers:    2
  Number of basis sets to read;    2
  Basis set file used for this atomic type with Z =   8 :
     "/gpfs/projects/rjh/adrian/dalton/build/basis/aug-cc-pVTZ"

  Atomic type no.    4
  --------------------
  Nuclear charge:   1.00000
  Number of symmetry independent centers:   28
  Number of basis sets to read;    2
  Basis set file used for this atomic type with Z =   1 :
     "/gpfs/projects/rjh/adrian/dalton/build/basis/aug-cc-pVTZ"


                         SYMGRP: Point group information
                         -------------------------------

@    Point group: C1 


                                 Isotopic Masses
                                 ---------------

                           C_a        12.000000
                           C_b        12.000000
                           C_c        12.000000
                           C_d        12.000000
                           C_e        12.000000
                           C_f        12.000000
                           C_g        12.000000
                           C_h        12.000000
                           C_i        12.000000
                           C_j        12.000000
                           C_k        12.000000
                           C_l        12.000000
                           C_m        12.000000
                           C_n        12.000000
                           C_o        12.000000
                           C_p        12.000000
                           C_q        12.000000
                           C_r        12.000000
                           C_s        12.000000
                           C_t        12.000000
                           C_u        12.000000
                           C_v        12.000000
                           C_w        12.000000
                           C_x        12.000000
                           C_y        12.000000
                           C_z        12.000000
                           N_a        14.003074
                           N_b        14.003074
                           O_a        15.994915
                           O_b        15.994915
                           H_a         1.007825
                           H_b         1.007825
                           H_c         1.007825
                           H_d         1.007825
                           H_e         1.007825
                           H_f         1.007825
                           H_g         1.007825
                           H_h         1.007825
                           H_i         1.007825
                           H_j         1.007825
                           H_k         1.007825
                           H_l         1.007825
                           H_m         1.007825
                           H_n         1.007825
                           H_o         1.007825
                           H_p         1.007825
                           H_q         1.007825
                           H_r         1.007825
                           H_s         1.007825
                           H_t         1.007825
                           H_u         1.007825
                           H_v         1.007825
                           H_w         1.007825
                           H_x         1.007825
                           H_y         1.007825
                           H_z         1.007825
                           H_{         1.007825
                           H_|         1.007825

                       Total mass:   400.215078 amu
                       Natural abundance:  73.786 %

 Center-of-mass coordinates (a.u.):   -0.209225   -0.225325    0.000000
 Center-of-mass coordinates (Angs):   -0.110717   -0.119237    0.000000


  Atoms and basis sets
  --------------------

  Number of atom types :    4
  Total number of atoms:   58

  Basis set used is "d-aug-cc-pVTZ" from the basis set library.

  label    atoms   charge   prim   cont     basis
  ----------------------------------------------------------------------
  C_         26    6.0000    74    62      [12s7p4d3f|6s5p4d3f]                               
  N_          2    7.0000    74    62      [12s7p4d3f|6s5p4d3f]                               
  O_          2    8.0000    74    62      [12s7p4d3f|6s5p4d3f]                               
  H_         28    1.0000    34    32      [7s4p3d|5s4p3d]                                    
  ----------------------------------------------------------------------
  total:     58  214.0000  3172  2756
  ----------------------------------------------------------------------
  Spherical harmonic basis used.

  Threshold for neglecting AO integrals:  1.00D-12

  Max    interatomic separation is   35.3046 Angstrom (   66.7160 Bohr)
  between atoms   58 and   29, "H_|   " and "O_a   ".

  Min HX interatomic separation is    1.0081 Angstrom (    1.9049 Bohr)

  Min YX interatomic separation is    1.2329 Angstrom (    2.3298 Bohr)


  Bond distances (Angstrom):
  --------------------------

                  atom 1     atom 2       distance
                  ------     ------       --------
  bond distance:  C_b        C_a          1.377072
  bond distance:  C_c        C_b          1.436837
  bond distance:  C_d        C_c          1.377303
  bond distance:  C_e        C_d          1.436741
  bond distance:  C_f        C_e          1.377332
  bond distance:  C_g        C_f          1.436879
  bond distance:  C_h        C_g          1.377148
  bond distance:  C_i        C_h          1.437314
  bond distance:  C_j        C_i          1.376655
  bond distance:  C_k        C_j          1.438215
  bond distance:  C_l        C_k          1.375625
  bond distance:  C_m        C_l          1.439838
  bond distance:  C_n        C_m          1.373573
  bond distance:  C_o        C_n          1.441376
  bond distance:  C_p        C_o          1.369665
  bond distance:  C_r        C_q          1.370253
  bond distance:  C_s        C_r          1.441859
  bond distance:  C_t        C_s          1.373828
  bond distance:  C_u        C_t          1.439275
  bond distance:  C_v        C_u          1.375627
  bond distance:  C_w        C_v          1.437908
  bond distance:  C_x        C_a          1.437185
  bond distance:  C_x        C_w          1.376574
  bond distance:  C_z        C_q          1.446646
  bond distance:  C_z        C_y          1.352866
  bond distance:  N_a        C_p          1.368901
  bond distance:  N_b        C_y          1.458963
  bond distance:  O_a        N_b          1.236911
  bond distance:  O_b        N_b          1.232854
  bond distance:  H_a        C_a          1.099878
  bond distance:  H_b        C_b          1.100131
  bond distance:  H_c        C_c          1.099918
  bond distance:  H_d        C_d          1.100178
  bond distance:  H_e        C_e          1.099937
  bond distance:  H_f        C_f          1.100244
  bond distance:  H_g        C_g          1.099938
  bond distance:  H_h        C_h          1.100344
  bond distance:  H_i        C_i          1.099922
  bond distance:  H_j        C_j          1.100508
  bond distance:  H_k        C_k          1.099859
  bond distance:  H_l        C_l          1.100820
  bond distance:  H_m        C_m          1.099610
  bond distance:  H_n        C_n          1.101181
  bond distance:  H_o        C_o          1.098571
  bond distance:  H_p        C_p          1.097234
  bond distance:  H_q        C_q          1.098461
  bond distance:  H_r        C_r          1.099824
  bond distance:  H_s        C_s          1.099408
  bond distance:  H_t        C_t          1.100046
  bond distance:  H_u        C_u          1.099666
  bond distance:  H_v        C_v          1.100075
  bond distance:  H_w        C_w          1.099805
  bond distance:  H_x        C_x          1.100098
  bond distance:  H_y        C_y          1.091648
  bond distance:  H_z        C_z          1.096653
  bond distance:  H_{        N_a          1.010761
  bond distance:  H_|        N_a          1.008053


  Bond angles (degrees):
  ----------------------

                  atom 1     atom 2     atom 3         angle
                  ------     ------     ------         -----
  bond angle:     C_b        C_a        C_x          123.805
  bond angle:     C_b        C_a        H_a          118.551
  bond angle:     C_x        C_a        H_a          117.644
  bond angle:     C_a        C_b        C_c          123.993
  bond angle:     C_a        C_b        H_b          118.456
  bond angle:     C_c        C_b        H_b          117.550
  bond angle:     C_b        C_c        C_d          123.829
  bond angle:     C_b        C_c        H_c          117.638
  bond angle:     C_d        C_c        H_c          118.533
  bond angle:     C_c        C_d        C_e          124.032
  bond angle:     C_c        C_d        H_d          118.432
  bond angle:     C_e        C_d        H_d          117.535
  bond angle:     C_d        C_e        C_f          123.834
  bond angle:     C_d        C_e        H_e          117.635
  bond angle:     C_f        C_e        H_e          118.530
  bond angle:     C_e        C_f        C_g          124.092
  bond angle:     C_e        C_f        H_f          118.402
  bond angle:     C_g        C_f        H_f          117.506
  bond angle:     C_f        C_g        C_h          123.824
  bond angle:     C_f        C_g        H_g          117.634
  bond angle:     C_h        C_g        H_g          118.542
  bond angle:     C_g        C_h        C_i          124.183
  bond angle:     C_g        C_h        H_h          118.360
  bond angle:     C_i        C_h        H_h          117.457
  bond angle:     C_h        C_i        C_j          123.795
  bond angle:     C_h        C_i        H_i          117.632
  bond angle:     C_j        C_i        H_i          118.573
  bond angle:     C_i        C_j        C_k          124.332
  bond angle:     C_i        C_j        H_j          118.292
  bond angle:     C_k        C_j        H_j          117.376
  bond angle:     C_j        C_k        C_l          123.724
  bond angle:     C_j        C_k        H_k          117.631
  bond angle:     C_l        C_k        H_k          118.645
  bond angle:     C_k        C_l        C_m          124.616
  bond angle:     C_k        C_l        H_l          118.149
  bond angle:     C_m        C_l        H_l          117.235
  bond angle:     C_l        C_m        C_n          123.488
  bond angle:     C_l        C_m        H_m          117.666
  bond angle:     C_n        C_m        H_m          118.847
  bond angle:     C_m        C_n        C_o          125.200
  bond angle:     C_m        C_n        H_n          117.800
  bond angle:     C_o        C_n        H_n          116.999
  bond angle:     C_n        C_o        C_p          122.200
  bond angle:     C_n        C_o        H_o          118.415
  bond angle:     C_p        C_o        H_o          119.385
  bond angle:     C_o        C_p        N_a          126.190
  bond angle:     C_o        C_p        H_p          119.402
  bond angle:     N_a        C_p        H_p          114.408
  bond angle:     C_r        C_q        C_z          122.546
  bond angle:     C_r        C_q        H_q          119.174
  bond angle:     C_z        C_q        H_q          118.281
  bond angle:     C_q        C_r        C_s          124.018
  bond angle:     C_q        C_r        H_r          118.505
  bond angle:     C_s        C_r        H_r          117.477
  bond angle:     C_r        C_s        C_t          123.421
  bond angle:     C_r        C_s        H_s          117.741
  bond angle:     C_t        C_s        H_s          118.838
  bond angle:     C_s        C_t        C_u          123.999
  bond angle:     C_s        C_t        H_t          118.520
  bond angle:     C_u        C_t        H_t          117.481
  bond angle:     C_t        C_u        C_v          123.644
  bond angle:     C_t        C_u        H_u          117.680
  bond angle:     C_v        C_u        H_u          118.676
  bond angle:     C_u        C_v        C_w          123.969
  bond angle:     C_u        C_v        H_v          118.498
  bond angle:     C_w        C_v        H_v          117.532
  bond angle:     C_v        C_w        C_x          123.753
  bond angle:     C_v        C_w        H_w          117.656
  bond angle:     C_x        C_w        H_w          118.592
  bond angle:     C_a        C_x        C_w          123.971
  bond angle:     C_a        C_x        H_x          117.551
  bond angle:     C_w        C_x        H_x          118.478
  bond angle:     C_z        C_y        N_b          121.102
  bond angle:     C_z        C_y        H_y          126.165
  bond angle:     N_b        C_y        H_y          112.733
  bond angle:     C_q        C_z        C_y          123.248
  bond angle:     C_q        C_z        H_z          119.032
  bond angle:     C_y        C_z        H_z          117.720
  bond angle:     C_p        N_a        H_{          120.828
  bond angle:     C_p        N_a        H_|          121.062
  bond angle:     H_{        N_a        H_|          118.110
  bond angle:     C_y        N_b        O_a          115.491
  bond angle:     C_y        N_b        O_b          118.906
  bond angle:     O_a        N_b        O_b          125.603




 Principal moments of inertia (u*A**2) and principal axes
 --------------------------------------------------------

   IA     148.143465          0.703374    0.710820    0.000000
   IB   46570.622979          0.710820   -0.703374    0.000000
   IC   46718.766444          0.000000    0.000000    1.000000


 Rotational constants
 --------------------

@    The molecule is planar.

               A                   B                   C

           3411.4161             10.8519             10.8175 MHz
            0.113793            0.000362            0.000361 cm-1


@  Nuclear repulsion energy : 1902.014739146232 Hartree


                     .---------------------------------------.
                     | Starting in Integral Section (HERMIT) |
                     `---------------------------------------'



 ***************************************************************************************
 ****************** Output from **INTEGRALS input processing (HERMIT) ******************
 ***************************************************************************************


 - Using defaults, no **INTEGRALS input found

 Default print level:        1

 Calculation of one-electron Hamiltonian integrals.

 Center of mass  (bohr):     -0.209224920491     -0.225324994836      0.000000000000
 Operator center (bohr):      0.000000000000      0.000000000000      0.000000000000
 Gauge origin    (bohr):      0.000000000000      0.000000000000      0.000000000000
 Dipole origin   (bohr):      0.000000000000      0.000000000000      0.000000000000


     ************************************************************************
     ************************** Output from HERINT **************************
     ************************************************************************



                      Nuclear contribution to dipole moments
                      --------------------------------------

                 au               Debye          C m (/(10**-30)

      x     -0.00000204        -0.00000519        -0.00001730
      y      0.00000730         0.00001855         0.00006189
      z      0.00000000         0.00000000         0.00000000


  Time used in ONEDRV     is      13.27 seconds
  Time used in HUCKEL     is       2.64 seconds
  Time used in OVERLAP    is       1.54 seconds
  Time used in POPOVLP    is       2.98 seconds
  Time used in R2         is       1.83 seconds
  Time used in R4         is       2.12 seconds
  Time used in DIPLEN     is       2.70 seconds
  Time used in QUADRUP    is       5.19 seconds
  Time used in KINENE     is       2.37 seconds
  Time used in GABGEN     is      25.17 seconds
  Total CPU  time used in HERMIT:  1 minute   0 seconds
  Total wall time used in HERMIT:  1 minute   0 seconds


                        .----------------------------------.
                        | End of Integral Section (HERMIT) |
                        `----------------------------------'



                   .--------------------------------------------.
                   | Starting in Wave Function Section (SIRIUS) |
                   `--------------------------------------------'



@ Primary orbitals are deleted during canonical orthonormalization
@   because of detected numerical linear dependence or too large coefficients.
@ Eigenvalue threshold for num. lin. dep. =  1.00D-06

@ 201 MO components are deleted in symmetry    1
 Overlap eigenvalues of the deleted orbitals:
  9.84D-07  9.69D-07  9.48D-07  9.43D-07  9.17D-07
  9.12D-07  8.89D-07  8.74D-07  8.60D-07  8.23D-07
  7.82D-07  7.73D-07  7.33D-07  7.10D-07  6.73D-07
  6.43D-07  6.20D-07  6.04D-07  6.00D-07  5.73D-07
  5.63D-07  5.40D-07  5.35D-07  5.16D-07  5.06D-07
  4.86D-07  4.73D-07  4.62D-07  4.55D-07  4.46D-07
  4.37D-07  4.25D-07  4.16D-07  4.05D-07  3.95D-07
  3.87D-07  3.82D-07  3.67D-07  3.58D-07  3.49D-07
  3.33D-07  3.25D-07  3.12D-07  3.11D-07  3.07D-07
  3.05D-07  2.89D-07  2.83D-07  2.70D-07  2.64D-07
  2.58D-07  2.57D-07  2.46D-07  2.33D-07  2.18D-07
  2.13D-07  2.04D-07  2.02D-07  1.96D-07  1.95D-07
  1.85D-07  1.81D-07  1.74D-07  1.60D-07  1.56D-07
  1.48D-07  1.42D-07  1.42D-07  1.37D-07  1.34D-07
  1.32D-07  1.30D-07  1.28D-07  1.27D-07  1.21D-07
  1.18D-07  1.11D-07  1.10D-07  1.05D-07  1.03D-07
  1.01D-07  9.90D-08  9.51D-08  9.32D-08  8.80D-08
  8.61D-08  8.41D-08  8.30D-08  8.19D-08  8.09D-08
  7.92D-08  7.78D-08  7.66D-08  7.47D-08  7.25D-08
  7.05D-08  6.71D-08  6.62D-08  6.41D-08  6.26D-08
  6.12D-08  6.03D-08  5.80D-08  5.72D-08  5.44D-08
  5.23D-08  5.22D-08  5.15D-08  5.06D-08  4.99D-08
  4.86D-08  4.81D-08  4.74D-08  4.50D-08  4.36D-08
  4.19D-08  4.09D-08  3.98D-08  3.87D-08  3.73D-08
  3.43D-08  3.30D-08  3.20D-08  3.02D-08  2.93D-08
  2.84D-08  2.67D-08  2.57D-08  2.35D-08  2.19D-08
  2.15D-08  2.04D-08  2.01D-08  1.96D-08  1.85D-08
  1.82D-08  1.70D-08  1.61D-08  1.60D-08  1.56D-08
  1.47D-08  1.38D-08  1.29D-08  1.24D-08  1.20D-08
  1.13D-08  1.09D-08  9.47D-09  8.75D-09  8.61D-09
  8.45D-09  7.96D-09  7.78D-09  7.20D-09  7.01D-09
  6.88D-09  6.63D-09  6.19D-09  5.78D-09  5.75D-09
  5.16D-09  4.96D-09  4.83D-09  4.33D-09  4.12D-09
  3.44D-09  3.35D-09  3.11D-09  3.00D-09  2.83D-09
  2.74D-09  2.56D-09  2.29D-09  2.26D-09  1.93D-09
  1.80D-09  1.75D-09  1.53D-09  1.36D-09  1.31D-09
  1.21D-09  1.13D-09  8.96D-10  8.07D-10  7.97D-10
  7.33D-10  5.62D-10  4.58D-10  4.45D-10  4.35D-10
  3.66D-10  3.52D-10  2.99D-10  2.32D-10  1.82D-10
  1.76D-10  1.49D-10  3.28D-11  3.26D-11  1.21D-11
  1.04D-11

 Max MO coeff. of last deleted MO & limit:  2.38D+02  1.00D+03

WARNING: Orbitals have been deleted because of numerical
   linear dependence although not requested in input.

 *** Output from Huckel module :

     Using EWMO model:          T
     Using EHT  model:          F
     Number of Huckel orbitals each symmetry:  178

 EWMO - Energy Weighted Maximum Overlap - is a Huckel type method,
        which normally is better than Extended Huckel Theory.
 Reference: Linderberg and Ohrn, Propagators in Quantum Chemistry (Wiley, 1973)

 Huckel EWMO eigenvalues for symmetry :  1
          -20.684753     -20.683497     -15.677080     -15.674961     -11.359404
          -11.359365     -11.359184     -11.359064     -11.358855     -11.358810
          -11.358234     -11.357311     -11.356156     -11.354849     -11.353477
          -11.352135     -11.350960     -11.348614     -11.347868     -11.347103
          -11.346452     -11.345949     -11.345603     -11.345492     -11.345423
          -11.345399     -11.345297     -11.345276     -11.345189     -11.345186
           -1.964018      -1.792796      -1.789984      -1.782779      -1.768251
           -1.743648      -1.706915      -1.657309      -1.595577      -1.523908
           -1.453302      -1.434018      -1.357003      -1.270982      -1.211334
           -1.190833      -1.185339      -1.157595      -1.118868      -1.097806
           -1.068382      -1.014478      -1.014053      -0.957876      -0.940668
           -0.900946      -0.875538      -0.852017      -0.847595      -0.824641
           -0.813952      -0.783946      -0.768225      -0.749488      -0.743965
           -0.739485      -0.712990      -0.694160      -0.677906      -0.677145
           -0.657331      -0.641999      -0.638160      -0.621252      -0.601881
           -0.597783      -0.589179      -0.585328      -0.560978      -0.556184
           -0.551679      -0.537864      -0.529388      -0.515984      -0.512235
           -0.510069      -0.497873      -0.494645      -0.491708      -0.490432
           -0.485875      -0.484707      -0.478950      -0.478471      -0.477421
           -0.476147      -0.474461      -0.473900      -0.446470      -0.441362
           -0.417824      -0.408465      -0.393259      -0.379179      -0.374507
           -0.362710      -0.353825      -0.335893      -0.305861      -0.285770
           -0.267781      -0.252161      -0.238848      -0.229131      -0.227701
           -0.218538      -0.211157      -0.205347      -0.200907      -0.200900
           -0.197656      -0.195443      -0.194159      -0.190593      -0.166745
           -0.142716      -0.139014      -0.135399      -0.132960      -0.131698
           -0.131513      -0.130879      -0.130156      -0.129971      -0.129786
           -0.129654      -0.129161      -0.128919      -0.128447      -0.127890
           -0.127345      -0.127221      -0.126533      -0.126340      -0.126260
           -0.125804      -0.125091      -0.124899      -0.124231      -0.123907
           -0.123616      -0.123183      -0.112560      -0.112184      -0.108954
           -0.107865      -0.104736      -0.103015      -0.100749      -0.098365
           -0.096598      -0.094649      -0.093050      -0.091766      -0.090072
           -0.089493      -0.087921      -0.087538      -0.086389      -0.086007
           -0.085117      -0.085055      -0.083916      -0.082759      -0.081627
           -0.080582      -0.079757      -0.079336

 **********************************************************************
 *SIRIUS* a direct, restricted step, second order MCSCF program       *
 **********************************************************************

 
     Date and time (Linux)  : Mon Jun  2 13:47:05 2025
     Host name              : xm054                                   

 Title lines from ".mol" input file:
     blah                                                                    
     blah                                                                    

 Print level on unit LUPRI =   2 is   0
 Print level on unit LUW4  =   2 is   5

@    Restricted, closed shell Hartree-Fock calculation.

@    Time-dependent Hartree-Fock calculation (random phase approximation).
 Fock matrices are calculated directly and in parallel without use of integrals on disk.

 Initial molecular orbitals are obtained according to
 ".MOSTART EWMO  " input option

     Wave function specification
     ============================
@    Wave function type        --- HF ---
@    Number of closed shell electrons         214
@    Number of electrons in active shells       0
@    Total charge of the molecule               0

@    Spin multiplicity and 2 M_S                1         0
@    Total number of symmetries                 1 (point group: C1 )
@    Reference state symmetry                   1 (irrep name : A  )

     Orbital specifications
     ======================
@    Abelian symmetry species          All |    1
@                                          |  A  
                                       --- |  ---
@    Occupied SCF orbitals             107 |  107
@    Secondary orbitals               2448 | 2448
@    Total number of orbitals         2555 | 2555
@    Number of basis functions        2756 | 2756

     Optimization information
     ========================
@    Number of configurations                 1
@    Number of orbital rotations         261936
     ------------------------------------------
@    Total number of variables           261937

     Maximum number of Fock   iterations      0
     Maximum number of DIIS   iterations     60
     Maximum number of QC-SCF iterations     60
     Threshold for SCF convergence     1.00D-05

    INFORMATION: Switched to "new" integral transformation (from 1988 ;-) )
    because more than 255 basis functions.


 ***********************************************
 ***** DIIS acceleration of SCF iterations *****
 ***********************************************

 C1-DIIS algorithm; max error vectors =    8

 Iter      Total energy        Error norm    Delta(E)  DIIS dim.
 -----------------------------------------------------------------------------
   1  Screening settings (-IFTHRS, JTDIIS, DIFDEN, times)  -10    1    T  2.47D+02  2.48D+02
@  1    -1254.91813902        8.49600D+00   -1.25D+03    1
      Virial theorem: -V/T =      2.012331
@    MULPOP   C_a     0.30; C_b     0.32; C_c     0.28; C_d     0.33; C_e     0.27; C_f     0.30; C_g     0.26; C_h     0.32; C_i     0.31; C_j     0.27; 
@             C_k     0.23; C_l     0.22; C_m     0.13; C_n     0.28; C_o     0.16; C_p     0.47; C_q     0.23; C_r     0.27; C_s     0.23; C_t     0.28; 
@             C_u     0.29; C_v     0.33; C_w     0.30; C_x     0.29; C_y     0.11; C_z     0.43; N_a    -0.90; N_b    -0.00; O_a    -0.78; O_b    -0.76; 
@    MULPOP    dipole moment & components:     37.8021;       24.6352     28.6724      0.0000
   1  Level shift: doubly occupied orbital energies shifted by -2.00D-01
 -----------------------------------------------------------------------------
   2  Screening settings (-IFTHRS, JTDIIS, DIFDEN, times)  -10    2    T  2.46D+02  2.47D+02
@  2    -1259.01503916        3.11946D+00   -4.10D+00    2
      Virial theorem: -V/T =      2.000408
@    MULPOP   C_a     0.17; C_b     0.11; C_c     0.23; C_d     0.16; C_e     0.19; C_f     0.05; C_g     0.24; C_h     0.18; C_i     0.26; C_j     0.07; 
@             C_k     0.16; C_l     0.08; C_m     0.10; C_n     0.11; C_o     0.04; C_p    -0.19; C_q     0.12; C_r     0.21; C_s    -0.05; C_t     0.18; 
@             C_u     0.12; C_v     0.16; C_w     0.25; C_x     0.08; C_y    -0.49; C_z     0.33; N_a    -0.76; N_b    -0.00; O_a    -0.66; O_b    -0.76; 
@    MULPOP    dipole moment & components:     15.9445;        8.9071     13.2246      0.0000
   2  Level shift: doubly occupied orbital energies shifted by -1.00D-01
 -----------------------------------------------------------------------------
   3  Screening settings (-IFTHRS, JTDIIS, DIFDEN, times)  -10    3    T  2.39D+02  2.40D+02
@  3    -1259.52113365        1.12875D+00   -5.06D-01    3
      Virial theorem: -V/T =      2.001920
@    MULPOP   C_a     0.13; C_b     0.07; C_c     0.18; C_d     0.13; C_e     0.14; C_f     0.03; C_g     0.16; C_h     0.14; C_i     0.19; C_j     0.05; 
@             C_k     0.09; C_l     0.05; C_m     0.02; C_n     0.14; C_o    -0.11; C_p     0.01; C_q     0.12; C_r     0.18; C_s    -0.06; C_t     0.15; 
@             C_u     0.11; C_v     0.15; C_w     0.19; C_x     0.05; C_y    -0.17; C_z     0.24; N_a    -0.85; N_b     0.66; O_a    -1.22; O_b    -1.09; 
@    MULPOP    dipole moment & components:     13.0554;        6.8784     11.0964      0.0000
   3  Level shift: doubly occupied orbital energies shifted by -5.00D-02
 -----------------------------------------------------------------------------
   4  Screening settings (-IFTHRS, JTDIIS, DIFDEN, times)  -10    4    T  2.36D+02  2.37D+02
@  4    -1259.60012252        3.28679D-01   -7.90D-02    4
      Virial theorem: -V/T =      2.003464
@    MULPOP   C_a     0.15; C_b     0.09; C_c     0.19; C_d     0.15; C_e     0.14; C_f     0.05; C_g     0.17; C_h     0.16; C_i     0.19; C_j     0.07; 
@             C_k     0.08; C_l     0.07; C_m     0.03; C_n     0.14; C_o    -0.15; C_p    -0.00; C_q     0.09; C_r     0.19; C_s    -0.05; C_t     0.16; 
@             C_u     0.11; C_v     0.18; C_w     0.21; C_x     0.07; C_y    -0.28; C_z     0.19; N_a    -0.88; N_b     0.59; O_a    -1.17; O_b    -1.04; 
@    MULPOP    dipole moment & components:     11.3446;        5.7719      9.7665      0.0000
   4  Level shift: doubly occupied orbital energies shifted by -2.50D-02
 -----------------------------------------------------------------------------
   5  Screening settings (-IFTHRS, JTDIIS, DIFDEN, times)  -14    5    F  2.73D+02  2.75D+02
@  5    -1259.61648603        1.38825D-01   -1.64D-02    5
      Virial theorem: -V/T =      2.002756
@    MULPOP   C_a     0.19; C_b     0.11; C_c     0.22; C_d     0.18; C_e     0.17; C_f     0.08; C_g     0.19; C_h     0.20; C_i     0.21; C_j     0.10; 
@             C_k     0.08; C_l     0.08; C_m     0.03; C_n     0.15; C_o    -0.18; C_p    -0.11; C_q     0.07; C_r     0.19; C_s    -0.05; C_t     0.17; 
@             C_u     0.13; C_v     0.21; C_w     0.24; C_x     0.08; C_y    -0.34; C_z     0.14; N_a    -0.89; N_b     0.70; O_a    -1.22; O_b    -1.07; 
@    MULPOP    dipole moment & components:     10.4341;        5.0875      9.1098      0.0000
   5  Level shift: doubly occupied orbital energies shifted by -1.25D-02
 -----------------------------------------------------------------------------
   6  Screening settings (-IFTHRS, JTDIIS, DIFDEN, times)  -14    6    T  2.70D+02  2.72D+02
@  6    -1259.62148140        7.42691D-02   -5.00D-03    6
      Virial theorem: -V/T =      2.002636
@    MULPOP   C_a     0.21; C_b     0.12; C_c     0.24; C_d     0.20; C_e     0.17; C_f     0.10; C_g     0.19; C_h     0.22; C_i     0.21; C_j     0.09; 
@             C_k     0.06; C_l     0.07; C_m     0.04; C_n     0.15; C_o    -0.19; C_p    -0.12; C_q     0.07; C_r     0.18; C_s    -0.06; C_t     0.15; 
@             C_u     0.14; C_v     0.20; C_w     0.25; C_x     0.09; C_y    -0.37; C_z     0.17; N_a    -0.89; N_b     0.69; O_a    -1.21; O_b    -1.06; 
@    MULPOP    dipole moment & components:     10.0722;        4.8261      8.8407      0.0000
   6  Level shift: doubly occupied orbital energies shifted by -1.25D-02
 -----------------------------------------------------------------------------
   7  Screening settings (-IFTHRS, JTDIIS, DIFDEN, times)  -14    7    T  2.84D+02  2.86D+02
@  7    -90367.8064675        1.22497D+05   -8.91D+04    7
      Virial theorem: -V/T =     72.905964
@    MULPOP   C_a     0.16; C_b    -0.01; C_c     0.21; C_d     0.11; C_e     0.21; C_f    -0.04; C_g     0.17; C_h     0.25; C_i     0.31; C_j     0.13; 
@             C_k     0.03; C_l     0.13; C_m     0.17; C_n     0.24; C_o    -0.15; C_p    -0.26; C_q     0.09; C_r     0.13; C_s    -0.13; C_t     0.09; 
@             C_u     0.15; C_v     0.08; C_w     0.19; C_x    -0.06; C_y    -0.48; C_z     0.17; N_a    -0.81; N_b     0.73; O_a    -1.22; O_b    -1.04; 
@    MULPOP    dipole moment & components:     25.6689;       15.6651     20.3346      0.0000
   7  Level shift: doubly occupied orbital energies shifted by -1.25D-02
 -----------------------------------------------------------------------------
   8  Screening settings (-IFTHRS, JTDIIS, DIFDEN, times)  -10    8    F  2.76D+02  2.77D+02
@  8    -90367.7812723        1.22497D+05    2.52D-02    8
      Virial theorem: -V/T =     72.905944
@    MULPOP   C_a     0.16; C_b    -0.01; C_c     0.21; C_d     0.11; C_e     0.21; C_f    -0.04; C_g     0.17; C_h     0.25; C_i     0.31; C_j     0.13; 
@             C_k     0.03; C_l     0.13; C_m     0.17; C_n     0.24; C_o    -0.15; C_p    -0.26; C_q     0.09; C_r     0.13; C_s    -0.13; C_t     0.09; 
@             C_u     0.15; C_v     0.08; C_w     0.19; C_x    -0.06; C_y    -0.48; C_z     0.17; N_a    -0.81; N_b     0.73; O_a    -1.22; O_b    -1.04; 
@    MULPOP    dipole moment & components:     25.6689;       15.6651     20.3346      0.0000
   8  Level shift: doubly occupied orbital energies shifted by -1.25D-02
 -----------------------------------------------------------------------------
   9  Screening settings (-IFTHRS, JTDIIS, DIFDEN, times)  -10    9    F  2.76D+02  2.78D+02
@  9    -90367.7812789        1.22497D+05   -6.61D-06    8
      Virial theorem: -V/T =     72.905944
@    MULPOP   C_a     0.16; C_b    -0.01; C_c     0.21; C_d     0.11; C_e     0.21; C_f    -0.04; C_g     0.17; C_h     0.25; C_i     0.31; C_j     0.13; 
@             C_k     0.03; C_l     0.13; C_m     0.17; C_n     0.24; C_o    -0.15; C_p    -0.26; C_q     0.09; C_r     0.13; C_s    -0.13; C_t     0.09; 
@             C_u     0.15; C_v     0.08; C_w     0.19; C_x    -0.06; C_y    -0.48; C_z     0.17; N_a    -0.81; N_b     0.73; O_a    -1.22; O_b    -1.04; 
@    MULPOP    dipole moment & components:     25.6689;       15.6651     20.3346      0.0000
   9  Level shift: doubly occupied orbital energies shifted by -1.25D-02
 -----------------------------------------------------------------------------
  10  Screening settings (-IFTHRS, JTDIIS, DIFDEN, times)  -10   10    F  2.76D+02  2.78D+02
@ 10    -89729.2580826        1.23696D+05    6.39D+02    8
      Virial theorem: -V/T =     72.398782
@    MULPOP   C_a     0.06; C_b    -0.11; C_c     0.35; C_d     0.22; C_e     0.19; C_f    -0.09; C_g     0.16; C_h     0.20; C_i     0.36; C_j     0.17; 
@             C_k    -0.04; C_l     0.19; C_m     0.15; C_n     0.21; C_o    -0.17; C_p    -0.24; C_q     0.07; C_r     0.18; C_s     0.00; C_t    -0.06; 
@             C_u     0.09; C_v     0.16; C_w     0.29; C_x    -0.06; C_y    -0.50; C_z     0.20; N_a    -0.82; N_b     0.67; O_a    -1.22; O_b    -1.01; 
@    MULPOP    dipole moment & components:     26.7552;       16.5046     21.0579      0.0000
  10  Level shift: doubly occupied orbital energies shifted by -1.25D-02
 -----------------------------------------------------------------------------
  11  Screening settings (-IFTHRS, JTDIIS, DIFDEN, times)  -10   11    F  2.76D+02  2.77D+02
@ 11    -89729.2582215        1.23696D+05   -1.39D-04    8
      Virial theorem: -V/T =     72.398782
@    MULPOP   C_a     0.06; C_b    -0.11; C_c     0.35; C_d     0.22; C_e     0.19; C_f    -0.09; C_g     0.16; C_h     0.20; C_i     0.36; C_j     0.17; 
@             C_k    -0.04; C_l     0.19; C_m     0.15; C_n     0.21; C_o    -0.17; C_p    -0.24; C_q     0.07; C_r     0.18; C_s     0.00; C_t    -0.06; 
@             C_u     0.09; C_v     0.16; C_w     0.29; C_x    -0.06; C_y    -0.50; C_z     0.20; N_a    -0.82; N_b     0.67; O_a    -1.22; O_b    -1.01; 
@    MULPOP    dipole moment & components:     26.7552;       16.5046     21.0579      0.0000
  11  Level shift: doubly occupied orbital energies shifted by -1.25D-02
 -----------------------------------------------------------------------------
  12  Screening settings (-IFTHRS, JTDIIS, DIFDEN, times)  -10   12    F  2.77D+02  2.78D+02
@ 12    -89730.2793824        1.23690D+05   -1.02D+00    8
      Virial theorem: -V/T =     72.399607
@    MULPOP   C_a     0.06; C_b    -0.07; C_c     0.32; C_d     0.16; C_e     0.21; C_f    -0.08; C_g     0.12; C_h     0.15; C_i     0.34; C_j     0.15; 
@             C_k     0.11; C_l     0.09; C_m     0.26; C_n     0.18; C_o    -0.14; C_p    -0.22; C_q     0.05; C_r     0.20; C_s    -0.04; C_t    -0.04; 
@             C_u     0.09; C_v     0.19; C_w     0.26; C_x    -0.01; C_y    -0.50; C_z     0.21; N_a    -0.83; N_b     0.71; O_a    -1.22; O_b    -1.03; 
@    MULPOP    dipole moment & components:     26.5426;       16.2496     20.9871      0.0000
  12  Level shift: doubly occupied orbital energies shifted by -1.25D-02
 -----------------------------------------------------------------------------
  13  Screening settings (-IFTHRS, JTDIIS, DIFDEN, times)  -10   13    F  2.77D+02  2.78D+02
@ 13    -87994.7287887        1.26714D+05    1.74D+03    8
      Virial theorem: -V/T =     71.020957
@    MULPOP   C_a     0.15; C_b     0.03; C_c     0.35; C_d     0.07; C_e     0.07; C_f     0.02; C_g     0.25; C_h     0.19; C_i     0.18; C_j     0.05; 
@             C_k     0.10; C_l     0.13; C_m     0.19; C_n     0.18; C_o    -0.03; C_p    -0.27; C_q     0.09; C_r     0.26; C_s    -0.22; C_t     0.15; 
@             C_u     0.13; C_v     0.08; C_w     0.08; C_x    -0.04; C_y    -0.45; C_z     0.08; N_a    -0.82; N_b     0.70; O_a    -1.22; O_b    -1.01; 
@    MULPOP    dipole moment & components:     27.3075;       16.5253     21.7396      0.0000
  13  Level shift: doubly occupied orbital energies shifted by -1.25D-02
 -----------------------------------------------------------------------------
  14  Screening settings (-IFTHRS, JTDIIS, DIFDEN, times)  -10   14    F  2.77D+02  2.78D+02
@ 14    -88769.0475189        1.25412D+05   -7.74D+02    8
      Virial theorem: -V/T =     71.636078
@    MULPOP   C_a     0.11; C_b     0.05; C_c     0.40; C_d     0.13; C_e     0.07; C_f    -0.03; C_g     0.20; C_h     0.30; C_i     0.15; C_j     0.19; 
@             C_k     0.08; C_l     0.12; C_m     0.05; C_n     0.13; C_o     0.02; C_p    -0.29; C_q     0.12; C_r     0.18; C_s    -0.18; C_t     0.15; 
@             C_u     0.19; C_v     0.05; C_w     0.07; C_x    -0.16; C_y    -0.47; C_z     0.10; N_a    -0.81; N_b     0.72; O_a    -1.22; O_b    -1.01; 
@    MULPOP    dipole moment & components:     25.3459;       15.4095     20.1236      0.0000
  14  Level shift: doubly occupied orbital energies shifted by -1.25D-02
 -----------------------------------------------------------------------------
  15  Screening settings (-IFTHRS, JTDIIS, DIFDEN, times)  -10   15    F  2.79D+02  2.81D+02
@ 15    -1318394.46509        5.27487D+05   -1.23D+06    8
      Virial theorem: -V/T =   3690.897972
@    MULPOP   C_a    -0.18; C_b    -0.42; C_c    -0.01; C_d    -0.10; C_e     0.15; C_f    -0.02; C_g     0.26; C_h     0.21; C_i     0.38; C_j     0.04; 
@             C_k     0.79; C_l     0.39; C_m     0.60; C_n     0.75; C_o     1.03; C_p     1.44; C_q     0.59; C_r     0.63; C_s     0.63; C_t     1.22; 
@             C_u    -0.39; C_v     0.68; C_w     0.38; C_x    -0.02; C_y     1.22; C_z     0.47; N_a     4.21; N_b     3.10; O_a     6.07; O_b     6.31; 
@    MULPOP    dipole moment & components:    362.6973;     -238.0276   -273.6644      0.0000
  15  Level shift: doubly occupied orbital energies shifted by -1.25D-02
 -----------------------------------------------------------------------------
  16  Screening settings (-IFTHRS, JTDIIS, DIFDEN, times)  -10   16    F  2.80D+02  2.80D+02
@ 16    -1687968.18633        3.32349D+05   -3.70D+05    8
      Virial theorem: -V/T =   5028.698718
@    MULPOP   C_a    -2.06; C_b    -2.04; C_c    -1.46; C_d    -1.20; C_e    -1.26; C_f    -1.09; C_g    -0.69; C_h    -1.27; C_i    -0.75; C_j     0.01; 
@             C_k     0.50; C_l     0.58; C_m     0.67; C_n     0.38; C_o     0.76; C_p     1.23; C_q    -0.00; C_r     0.69; C_s     0.60; C_t     0.82; 
@             C_u     0.21; C_v    -0.40; C_w    -0.56; C_x    -0.36; C_y     1.44; C_z     0.80; N_a     5.93; N_b     5.17; O_a     7.66; O_b     7.63; 
@    MULPOP    dipole moment & components:    434.4231;     -278.9810   -333.0061      0.0000
  16  Level shift: doubly occupied orbital energies shifted by -1.25D-02
 -----------------------------------------------------------------------------
  17  Screening settings (-IFTHRS, JTDIIS, DIFDEN, times)  -10   17    F  2.79D+02  2.81D+02
@ 17    -1775950.71694        2.55241D+05   -8.80D+04    8
      Virial theorem: -V/T =   5304.701718
@    MULPOP   C_a    -2.01; C_b    -2.06; C_c    -1.41; C_d    -1.38; C_e    -1.27; C_f    -1.12; C_g    -0.53; C_h    -1.11; C_i    -0.55; C_j    -0.03; 
@             C_k     0.63; C_l     0.62; C_m     0.81; C_n     0.20; C_o     0.61; C_p     1.22; C_q    -0.11; C_r     0.62; C_s     0.67; C_t     0.84; 
@             C_u     0.28; C_v    -0.31; C_w    -0.46; C_x    -0.30; C_y     1.42; C_z     0.80; N_a     5.92; N_b     5.22; O_a     7.68; O_b     7.66; 
@    MULPOP    dipole moment & components:    439.0975;     -282.4988   -336.1563      0.0000
  17  Level shift: doubly occupied orbital energies shifted by -1.25D-02
 -----------------------------------------------------------------------------
  18  Screening settings (-IFTHRS, JTDIIS, DIFDEN, times)  -10   18    F  2.79D+02  2.80D+02
@ 18    -1866672.06297        1.56627D+05   -9.07D+04    8
      Virial theorem: -V/T =   5515.777318
@    MULPOP   C_a    -1.73; C_b    -1.90; C_c    -1.36; C_d    -1.58; C_e    -1.42; C_f    -1.36; C_g    -0.58; C_h    -1.06; C_i    -0.36; C_j     0.28; 
@             C_k     0.50; C_l     0.50; C_m     0.48; C_n     0.16; C_o     0.24; C_p     1.23; C_q    -0.28; C_r     0.62; C_s     0.49; C_t     0.85; 
@             C_u     0.12; C_v    -0.42; C_w    -0.60; C_x    -0.45; C_y     1.07; C_z     0.66; N_a     5.98; N_b     5.10; O_a     7.67; O_b     7.65; 
@    MULPOP    dipole moment & components:    426.0194;     -274.9730   -325.3957      0.0000
  18  Level shift: doubly occupied orbital energies shifted by -1.25D-02
 -----------------------------------------------------------------------------
  19  Screening settings (-IFTHRS, JTDIIS, DIFDEN, times)  -10   19    F  2.78D+02  2.80D+02
@ 19    -1902781.75836        6.87997D+04   -3.61D+04    8
      Virial theorem: -V/T =   5611.984031
@    MULPOP   C_a    -1.68; C_b    -1.81; C_c    -1.33; C_d    -1.52; C_e    -1.47; C_f    -1.32; C_g    -0.60; C_h    -1.01; C_i    -0.56; C_j     0.29; 
@             C_k     0.48; C_l     0.50; C_m     0.34; C_n     0.14; C_o     0.15; C_p     1.12; C_q    -0.33; C_r     0.46; C_s     0.49; C_t     0.86; 
@             C_u     0.02; C_v    -0.35; C_w    -0.46; C_x    -0.51; C_y     1.05; C_z     0.57; N_a     5.94; N_b     5.06; O_a     7.63; O_b     7.63; 
@    MULPOP    dipole moment & components:    426.9785;     -276.3006   -325.5282      0.0000
 -----------------------------------------------------------------------------
  20  Screening settings (-IFTHRS, JTDIIS, DIFDEN, times)  -10   20    F  2.78D+02  2.80D+02
@ 20    -1920768.72711        4.24366D+04   -1.80D+04    8
      Virial theorem: -V/T =   5640.424229
@    MULPOP   C_a    -1.53; C_b    -1.66; C_c    -1.29; C_d    -1.50; C_e    -1.48; C_f    -1.18; C_g    -0.52; C_h    -0.94; C_i    -0.67; C_j     0.36; 
@             C_k     0.50; C_l     0.51; C_m     0.31; C_n     0.06; C_o     0.09; C_p     1.14; C_q    -0.28; C_r     0.26; C_s     0.44; C_t     0.83; 
@             C_u     0.19; C_v    -0.47; C_w    -0.47; C_x    -0.61; C_y     1.10; C_z     0.47; N_a     6.01; N_b     5.15; O_a     7.57; O_b     7.64; 
@    MULPOP    dipole moment & components:    432.2871;     -279.4801   -329.7924      0.0000
 -----------------------------------------------------------------------------
  21  Screening settings (-IFTHRS, JTDIIS, DIFDEN, times)  -10   21    F  2.80D+02  2.81D+02
@ 21    -1928532.04334        4.34528D+04   -7.76D+03    8
      Virial theorem: -V/T =   5665.009441
@    MULPOP   C_a    -1.52; C_b    -1.68; C_c    -1.29; C_d    -1.50; C_e    -1.46; C_f    -1.14; C_g    -0.50; C_h    -0.90; C_i    -0.68; C_j     0.43; 
@             C_k     0.55; C_l     0.54; C_m     0.33; C_n     0.02; C_o     0.14; C_p     1.16; C_q    -0.28; C_r     0.19; C_s     0.46; C_t     0.83; 
@             C_u     0.28; C_v    -0.51; C_w    -0.40; C_x    -0.64; C_y     1.12; C_z     0.48; N_a     6.02; N_b     5.18; O_a     7.57; O_b     7.65; 
@    MULPOP    dipole moment & components:    429.9677;     -277.4174   -328.4994      0.0000
 -----------------------------------------------------------------------------
  22  Screening settings (-IFTHRS, JTDIIS, DIFDEN, times)  -10   22    F  2.79D+02  2.81D+02
@ 22    -1913840.50543        2.91689D+04    1.47D+04    8
      Virial theorem: -V/T =   5617.016984
@    MULPOP   C_a    -1.60; C_b    -1.65; C_c    -1.26; C_d    -1.49; C_e    -1.52; C_f    -1.29; C_g    -0.53; C_h    -1.00; C_i    -0.64; C_j     0.35; 
@             C_k     0.47; C_l     0.55; C_m     0.28; C_n     0.09; C_o     0.06; C_p     1.12; C_q    -0.35; C_r     0.36; C_s     0.42; C_t     0.86; 
@             C_u     0.07; C_v    -0.39; C_w    -0.54; C_x    -0.60; C_y     0.99; C_z     0.49; N_a     5.97; N_b     5.06; O_a     7.59; O_b     7.63; 
@    MULPOP    dipole moment & components:    428.4927;     -277.4328   -326.5534      0.0000
 -----------------------------------------------------------------------------
  23  Screening settings (-IFTHRS, JTDIIS, DIFDEN, times)  -10   23    F  2.78D+02  2.80D+02
@ 23    -1908021.16584        1.44977D+04    5.82D+03    8
      Virial theorem: -V/T =   5589.031531
@    MULPOP   C_a    -1.66; C_b    -1.67; C_c    -1.24; C_d    -1.55; C_e    -1.53; C_f    -1.46; C_g    -0.53; C_h    -0.96; C_i    -0.44; C_j     0.18; 
@             C_k     0.53; C_l     0.63; C_m     0.25; C_n     0.16; C_o     0.08; C_p     1.13; C_q    -0.41; C_r     0.45; C_s     0.34; C_t     0.83; 
@             C_u    -0.08; C_v    -0.24; C_w    -0.50; C_x    -0.46; C_y     0.70; C_z     0.55; N_a     5.86; N_b     4.98; O_a     7.65; O_b     7.63; 
@    MULPOP    dipole moment & components:    414.4545;     -268.2520   -315.9325      0.0000
 -----------------------------------------------------------------------------
  24  Screening settings (-IFTHRS, JTDIIS, DIFDEN, times)  -10   24    F  2.79D+02  2.80D+02
@ 24    -1907771.63221        1.56561D+03    2.50D+02    8
      Virial theorem: -V/T =   5590.487598
@    MULPOP   C_a    -1.64; C_b    -1.67; C_c    -1.25; C_d    -1.55; C_e    -1.55; C_f    -1.45; C_g    -0.54; C_h    -0.98; C_i    -0.48; C_j     0.20; 
@             C_k     0.49; C_l     0.61; C_m     0.24; C_n     0.16; C_o     0.06; C_p     1.12; C_q    -0.41; C_r     0.43; C_s     0.37; C_t     0.86; 
@             C_u    -0.05; C_v    -0.27; C_w    -0.53; C_x    -0.48; C_y     0.77; C_z     0.55; N_a     5.87; N_b     4.98; O_a     7.63; O_b     7.62; 
@    MULPOP    dipole moment & components:    419.5951;     -271.7674   -319.6913      0.0000
 -----------------------------------------------------------------------------
  25  Screening settings (-IFTHRS, JTDIIS, DIFDEN, times)  -10   25    F  2.79D+02  2.80D+02
@ 25    -1907765.89386        5.92298D+02    5.74D+00    8
      Virial theorem: -V/T =   5590.406696
@    MULPOP   C_a    -1.64; C_b    -1.66; C_c    -1.26; C_d    -1.54; C_e    -1.55; C_f    -1.45; C_g    -0.54; C_h    -0.98; C_i    -0.48; C_j     0.20; 
@             C_k     0.49; C_l     0.60; C_m     0.24; C_n     0.16; C_o     0.06; C_p     1.12; C_q    -0.40; C_r     0.43; C_s     0.37; C_t     0.86; 
@             C_u    -0.04; C_v    -0.28; C_w    -0.53; C_x    -0.49; C_y     0.78; C_z     0.54; N_a     5.87; N_b     4.98; O_a     7.63; O_b     7.62; 
@    MULPOP    dipole moment & components:    420.0132;     -272.0684   -319.9841      0.0000
 -----------------------------------------------------------------------------
  26  Screening settings (-IFTHRS, JTDIIS, DIFDEN, times)  -10   26    T  2.65D+02  2.67D+02
@ 26    -1907767.11276        3.19641D+02   -1.22D+00    8
      Virial theorem: -V/T =   5590.431955
@    MULPOP   C_a    -1.64; C_b    -1.66; C_c    -1.26; C_d    -1.54; C_e    -1.55; C_f    -1.45; C_g    -0.54; C_h    -0.98; C_i    -0.48; C_j     0.20; 
@             C_k     0.49; C_l     0.60; C_m     0.24; C_n     0.16; C_o     0.05; C_p     1.12; C_q    -0.40; C_r     0.43; C_s     0.37; C_t     0.86; 
@             C_u    -0.04; C_v    -0.28; C_w    -0.53; C_x    -0.49; C_y     0.78; C_z     0.54; N_a     5.87; N_b     4.98; O_a     7.63; O_b     7.62; 
@    MULPOP    dipole moment & components:    419.9768;     -272.0432   -319.9579      0.0000
 -----------------------------------------------------------------------------
  27  Screening settings (-IFTHRS, JTDIIS, DIFDEN, times)  -10   27    T  2.64D+02  2.65D+02
@ 27    -1907768.04965        2.06322D+02   -9.37D-01    8
      Virial theorem: -V/T =   5590.433555
@    MULPOP   C_a    -1.64; C_b    -1.66; C_c    -1.26; C_d    -1.54; C_e    -1.55; C_f    -1.45; C_g    -0.54; C_h    -0.98; C_i    -0.48; C_j     0.20; 
@             C_k     0.49; C_l     0.60; C_m     0.24; C_n     0.16; C_o     0.05; C_p     1.12; C_q    -0.40; C_r     0.42; C_s     0.37; C_t     0.86; 
@             C_u    -0.04; C_v    -0.28; C_w    -0.53; C_x    -0.49; C_y     0.78; C_z     0.54; N_a     5.87; N_b     4.98; O_a     7.63; O_b     7.62; 
@    MULPOP    dipole moment & components:    419.8684;     -271.9591   -319.8870      0.0000
 -----------------------------------------------------------------------------
  28  Screening settings (-IFTHRS, JTDIIS, DIFDEN, times)  -10   28    T  2.66D+02  2.66D+02
@ 28    -1907768.71767        7.25655D+01   -6.68D-01    8
      Virial theorem: -V/T =   5590.441746
@    MULPOP   C_a    -1.64; C_b    -1.66; C_c    -1.26; C_d    -1.54; C_e    -1.55; C_f    -1.44; C_g    -0.54; C_h    -0.99; C_i    -0.48; C_j     0.20; 
@             C_k     0.49; C_l     0.60; C_m     0.24; C_n     0.15; C_o     0.05; C_p     1.13; C_q    -0.40; C_r     0.42; C_s     0.37; C_t     0.86; 
@             C_u    -0.04; C_v    -0.29; C_w    -0.53; C_x    -0.50; C_y     0.79; C_z     0.54; N_a     5.87; N_b     4.98; O_a     7.63; O_b     7.62; 
@    MULPOP    dipole moment & components:    419.6479;     -271.8111   -319.7235      0.0000
 -----------------------------------------------------------------------------
  29  Screening settings (-IFTHRS, JTDIIS, DIFDEN, times)  -10   29    T  2.62D+02  2.64D+02
@ 29    -1907768.75585        2.46061D+01   -3.82D-02    8
      Virial theorem: -V/T =   5590.455628
@    MULPOP   C_a    -1.64; C_b    -1.66; C_c    -1.26; C_d    -1.54; C_e    -1.55; C_f    -1.44; C_g    -0.54; C_h    -0.99; C_i    -0.48; C_j     0.20; 
@             C_k     0.49; C_l     0.60; C_m     0.24; C_n     0.15; C_o     0.05; C_p     1.13; C_q    -0.41; C_r     0.42; C_s     0.37; C_t     0.86; 
@             C_u    -0.04; C_v    -0.29; C_w    -0.53; C_x    -0.50; C_y     0.79; C_z     0.54; N_a     5.87; N_b     4.98; O_a     7.63; O_b     7.62; 
@    MULPOP    dipole moment & components:    419.5931;     -271.7701   -319.6864      0.0000
 -----------------------------------------------------------------------------
  30  Screening settings (-IFTHRS, JTDIIS, DIFDEN, times)  -10   30    T  2.56D+02  2.57D+02
@ 30    -1907768.77999        9.81636D+00   -2.41D-02    8
      Virial theorem: -V/T =   5590.458583
@    MULPOP   C_a    -1.64; C_b    -1.66; C_c    -1.26; C_d    -1.54; C_e    -1.55; C_f    -1.44; C_g    -0.54; C_h    -0.99; C_i    -0.48; C_j     0.20; 
@             C_k     0.49; C_l     0.60; C_m     0.24; C_n     0.15; C_o     0.05; C_p     1.13; C_q    -0.41; C_r     0.42; C_s     0.37; C_t     0.86; 
@             C_u    -0.04; C_v    -0.29; C_w    -0.53; C_x    -0.50; C_y     0.79; C_z     0.54; N_a     5.87; N_b     4.98; O_a     7.63; O_b     7.62; 
@    MULPOP    dipole moment & components:    419.5839;     -271.7655   -319.6783      0.0000
 -----------------------------------------------------------------------------
  31  Screening settings (-IFTHRS, JTDIIS, DIFDEN, times)  -10   31    T  2.52D+02  2.53D+02
@ 31    -1907768.78815        1.98447D+00   -8.16D-03    8
      Virial theorem: -V/T =   5590.457502
@    MULPOP   C_a    -1.64; C_b    -1.66; C_c    -1.26; C_d    -1.54; C_e    -1.55; C_f    -1.44; C_g    -0.54; C_h    -0.99; C_i    -0.48; C_j     0.20; 
@             C_k     0.49; C_l     0.60; C_m     0.24; C_n     0.15; C_o     0.05; C_p     1.13; C_q    -0.41; C_r     0.42; C_s     0.37; C_t     0.86; 
@             C_u    -0.04; C_v    -0.29; C_w    -0.53; C_x    -0.50; C_y     0.79; C_z     0.54; N_a     5.87; N_b     4.98; O_a     7.63; O_b     7.62; 
@    MULPOP    dipole moment & components:    419.5813;     -271.7630   -319.6769      0.0000
 -----------------------------------------------------------------------------
  32  Screening settings (-IFTHRS, JTDIIS, DIFDEN, times)  -10   32    T  2.46D+02  2.47D+02
@ 32    -1907768.82931        8.19780D-01   -4.12D-02    8
      Virial theorem: -V/T =   5590.456654
@    MULPOP   C_a    -1.64; C_b    -1.66; C_c    -1.26; C_d    -1.54; C_e    -1.55; C_f    -1.44; C_g    -0.54; C_h    -0.99; C_i    -0.48; C_j     0.20; 
@             C_k     0.49; C_l     0.60; C_m     0.24; C_n     0.15; C_o     0.05; C_p     1.13; C_q    -0.41; C_r     0.42; C_s     0.37; C_t     0.86; 
@             C_u    -0.04; C_v    -0.29; C_w    -0.53; C_x    -0.50; C_y     0.79; C_z     0.54; N_a     5.87; N_b     4.98; O_a     7.63; O_b     7.62; 
@    MULPOP    dipole moment & components:    419.5811;     -271.7629   -319.6767      0.0000
 -----------------------------------------------------------------------------
  33  Screening settings (-IFTHRS, JTDIIS, DIFDEN, times)  -10   33    T  2.39D+02  2.40D+02
@ 33    -1907768.85929        4.90491D-01   -3.00D-02    8
      Virial theorem: -V/T =   5590.456484
@    MULPOP   C_a    -1.64; C_b    -1.66; C_c    -1.26; C_d    -1.54; C_e    -1.55; C_f    -1.44; C_g    -0.54; C_h    -0.99; C_i    -0.48; C_j     0.20; 
@             C_k     0.49; C_l     0.60; C_m     0.24; C_n     0.15; C_o     0.05; C_p     1.13; C_q    -0.41; C_r     0.42; C_s     0.37; C_t     0.86; 
@             C_u    -0.04; C_v    -0.29; C_w    -0.53; C_x    -0.50; C_y     0.79; C_z     0.54; N_a     5.87; N_b     4.98; O_a     7.63; O_b     7.62; 
@    MULPOP    dipole moment & components:    419.5811;     -271.7629   -319.6767      0.0000
 -----------------------------------------------------------------------------
  34  Screening settings (-IFTHRS, JTDIIS, DIFDEN, times)  -14   34    F  2.85D+02  2.86D+02
@ 34    -1907768.72397        4.08754D-01    1.35D-01    8
      Virial theorem: -V/T =   5590.456046
@    MULPOP   C_a    -1.64; C_b    -1.66; C_c    -1.26; C_d    -1.54; C_e    -1.55; C_f    -1.44; C_g    -0.54; C_h    -0.99; C_i    -0.48; C_j     0.20; 
@             C_k     0.49; C_l     0.60; C_m     0.24; C_n     0.15; C_o     0.05; C_p     1.13; C_q    -0.41; C_r     0.42; C_s     0.37; C_t     0.86; 
@             C_u    -0.04; C_v    -0.29; C_w    -0.53; C_x    -0.50; C_y     0.79; C_z     0.54; N_a     5.87; N_b     4.98; O_a     7.63; O_b     7.62; 
@    MULPOP    dipole moment & components:    419.5809;     -271.7628   -319.6766      0.0000
 -----------------------------------------------------------------------------
  35  Screening settings (-IFTHRS, JTDIIS, DIFDEN, times)  -14   35    T  2.69D+02  2.70D+02
@ 35    -1907768.72409        3.38399D-01   -1.21D-04    8
      Virial theorem: -V/T =   5590.456105
@    MULPOP   C_a    -1.64; C_b    -1.66; C_c    -1.26; C_d    -1.54; C_e    -1.55; C_f    -1.44; C_g    -0.54; C_h    -0.99; C_i    -0.48; C_j     0.20; 
@             C_k     0.49; C_l     0.60; C_m     0.24; C_n     0.15; C_o     0.05; C_p     1.13; C_q    -0.41; C_r     0.42; C_s     0.37; C_t     0.86; 
@             C_u    -0.04; C_v    -0.29; C_w    -0.53; C_x    -0.50; C_y     0.79; C_z     0.54; N_a     5.87; N_b     4.98; O_a     7.63; O_b     7.62; 
@    MULPOP    dipole moment & components:    419.5810;     -271.7629   -319.6767      0.0000
 -----------------------------------------------------------------------------
  36  Screening settings (-IFTHRS, JTDIIS, DIFDEN, times)  -14   36    T  2.71D+02  2.72D+02
@ 36    -1907768.72385        2.05211D-01    2.38D-04    8

!!! Info: DIIS restarted because it was stalled ...
 - energy changed by    2.379E-04
 - gradient changed by -0.133    
 - or strange C vector coeff. for current index (=  4) :
   -0.045511   -1.928983    1.699622    1.293533    0.000497   -0.002485   -0.018534    0.001860

! Backstep to previous Fock matrix because energy increased.
      Virial theorem: -V/T =   5590.456104
@    MULPOP   C_a    -1.64; C_b    -1.66; C_c    -1.26; C_d    -1.54; C_e    -1.55; C_f    -1.44; C_g    -0.54; C_h    -0.99; C_i    -0.48; C_j     0.20; 
@             C_k     0.49; C_l     0.60; C_m     0.24; C_n     0.15; C_o     0.05; C_p     1.13; C_q    -0.41; C_r     0.42; C_s     0.37; C_t     0.86; 
@             C_u    -0.04; C_v    -0.29; C_w    -0.53; C_x    -0.50; C_y     0.79; C_z     0.54; N_a     5.87; N_b     4.98; O_a     7.63; O_b     7.62; 
@    MULPOP    dipole moment & components:    419.5810;     -271.7629   -319.6767      0.0000
  36  Level shift: doubly occupied orbital energies shifted by -2.38D-03
 -----------------------------------------------------------------------------
  37  Screening settings (-IFTHRS, JTDIIS, DIFDEN, times)  -14    2    F  2.86D+02  2.87D+02
@ 37    -1907768.72673        3.01355D-01   -2.88D-03    2
      Virial theorem: -V/T =   5590.456326
@    MULPOP   C_a    -1.64; C_b    -1.66; C_c    -1.26; C_d    -1.54; C_e    -1.55; C_f    -1.44; C_g    -0.54; C_h    -0.99; C_i    -0.48; C_j     0.20; 
@             C_k     0.49; C_l     0.60; C_m     0.24; C_n     0.15; C_o     0.05; C_p     1.13; C_q    -0.41; C_r     0.42; C_s     0.37; C_t     0.86; 
@             C_u    -0.04; C_v    -0.29; C_w    -0.53; C_x    -0.50; C_y     0.79; C_z     0.54; N_a     5.87; N_b     4.98; O_a     7.63; O_b     7.62; 
@    MULPOP    dipole moment & components:    419.5816;     -271.7633   -319.6771      0.0000
  37  Level shift: doubly occupied orbital energies shifted by -2.38D-03
 -----------------------------------------------------------------------------
  38  Screening settings (-IFTHRS, JTDIIS, DIFDEN, times)  -14    3    T  2.71D+02  2.72D+02
@ 38    -1907768.72686        1.91949D-01   -1.25D-04    3
      Virial theorem: -V/T =   5590.456094
@    MULPOP   C_a    -1.64; C_b    -1.66; C_c    -1.26; C_d    -1.54; C_e    -1.55; C_f    -1.44; C_g    -0.54; C_h    -0.99; C_i    -0.48; C_j     0.20; 
@             C_k     0.49; C_l     0.60; C_m     0.24; C_n     0.15; C_o     0.05; C_p     1.13; C_q    -0.41; C_r     0.42; C_s     0.37; C_t     0.86; 
@             C_u    -0.04; C_v    -0.29; C_w    -0.53; C_x    -0.50; C_y     0.79; C_z     0.54; N_a     5.87; N_b     4.98; O_a     7.63; O_b     7.62; 
@    MULPOP    dipole moment & components:    419.5815;     -271.7632   -319.6770      0.0000
 -----------------------------------------------------------------------------
  39  Screening settings (-IFTHRS, JTDIIS, DIFDEN, times)  -14    4    T  2.69D+02  2.70D+02
@ 39    -1907768.72694        2.37633D-01   -8.12D-05    4

!!! Info: DIIS restarted because it was stalled ...
 - energy changed by   -8.116E-05
 - gradient changed by  4.568E-02
 - or strange C vector coeff. for current index (=  4) :
    0.112744   -0.900289    2.942759   -1.155214
      Virial theorem: -V/T =   5590.456016
@    MULPOP   C_a    -1.64; C_b    -1.66; C_c    -1.26; C_d    -1.54; C_e    -1.55; C_f    -1.44; C_g    -0.54; C_h    -0.99; C_i    -0.48; C_j     0.20; 
@             C_k     0.49; C_l     0.60; C_m     0.24; C_n     0.15; C_o     0.05; C_p     1.13; C_q    -0.41; C_r     0.42; C_s     0.37; C_t     0.86; 
@             C_u    -0.04; C_v    -0.29; C_w    -0.53; C_x    -0.50; C_y     0.79; C_z     0.54; N_a     5.87; N_b     4.98; O_a     7.63; O_b     7.62; 
@    MULPOP    dipole moment & components:    419.5814;     -271.7632   -319.6770      0.0000
  39  Level shift: doubly occupied orbital energies shifted by -8.12D-04
 -----------------------------------------------------------------------------
  40  Screening settings (-IFTHRS, JTDIIS, DIFDEN, times)  -14    2    T  2.69D+02  2.70D+02
@ 40    -1907768.72666        3.92064D-01    2.75D-04    2
      Virial theorem: -V/T =   5590.455983
@    MULPOP   C_a    -1.64; C_b    -1.66; C_c    -1.26; C_d    -1.54; C_e    -1.55; C_f    -1.44; C_g    -0.54; C_h    -0.99; C_i    -0.48; C_j     0.20; 
@             C_k     0.49; C_l     0.60; C_m     0.24; C_n     0.15; C_o     0.05; C_p     1.13; C_q    -0.41; C_r     0.42; C_s     0.37; C_t     0.86; 
@             C_u    -0.04; C_v    -0.29; C_w    -0.53; C_x    -0.50; C_y     0.79; C_z     0.54; N_a     5.87; N_b     4.98; O_a     7.63; O_b     7.62; 
@    MULPOP    dipole moment & components:    419.5814;     -271.7632   -319.6770      0.0000
 -----------------------------------------------------------------------------
  41  Screening settings (-IFTHRS, JTDIIS, DIFDEN, times)  -14    3    T  2.69D+02  2.71D+02
@ 41    -1907768.72682        1.27329D-01   -1.53D-04    3
[...]
2482 H_t :2pz    0.0000  -0.0000  -1.5367  -0.0000   8.0333   0.0000
2483 H_t :2px   11.6361   7.9958  -0.0000   5.8938  -0.0000   3.1577
2484 H_t :2py   19.8220  -5.6725  -0.0000   8.4257  -0.0000   5.3520
2485 H_t :2pz    0.0000  -0.0000  -1.1355  -0.0000  -1.3808  -0.0000
2486 H_t :3d2-   0.0938  -0.0194  -0.0000   0.0650   0.0000  -0.0650
2487 H_t :3d1-  -0.0000   0.0000  -0.0013  -0.0000   0.0296   0.0000
2488 H_t :3d0    0.0558   0.0016  -0.0000   0.0340  -0.0000  -0.0142
2489 H_t :3d1+   0.0000  -0.0000   0.0188   0.0000   0.0280   0.0000
2490 H_t :3d2+   0.0169   0.0004   0.0000  -0.0325   0.0000   0.0016
2491 H_t :3d2-   0.5597  -0.0070  -0.0000   0.2203  -0.0000  -0.2758
2492 H_t :3d1-  -0.0000   0.0000  -0.1371  -0.0000  -0.1372  -0.0000
2493 H_t :3d0    0.4071  -0.3409   0.0000  -0.0008   0.0000  -0.0358
2494 H_t :3d1+  -0.0000   0.0000  -0.1347  -0.0000  -0.3226   0.0000
2495 H_t :3d2+  -0.0299  -0.2860   0.0000  -0.2394   0.0000  -0.1509
2496 H_t :3d2-   2.9837   2.7883  -0.0000   4.2788  -0.0000   4.4810
2497 H_t :3d1-   0.0000   0.0000  -1.2820  -0.0000  -4.3236  -0.0000
2498 H_t :3d0    0.6555  -1.2007   0.0000  -2.4966   0.0000  -4.1282
2499 H_t :3d1+  -0.0000   0.0000  -1.8680  -0.0000  -2.8183   0.0000
2500 H_t :3d2+  -5.5331   3.0255  -0.0000   3.4645  -0.0000   4.3669
2501 H_u :1s    -0.1097   0.1017  -0.0000   0.6302  -0.0000   0.2416
2502 H_u :1s    -2.8778  -2.4129   0.0000  -5.5806   0.0000   1.6630
2503 H_u :1s     1.4173 -11.1106   0.0000  -1.7096  -0.0000   3.5909
2504 H_u :1s    -1.1271   3.3627   0.0000  -6.5952   0.0000   1.0250
2505 H_u :1s    -5.7611  -2.8154  -0.0000   0.2531  -0.0000  -3.5656
2506 H_u :2px   -0.0238  -0.0149   0.0000  -0.0785   0.0000   0.0050
2507 H_u :2py    0.0101   0.0360  -0.0000   0.0267  -0.0000   0.0321
2508 H_u :2pz    0.0000   0.0000  -0.0113  -0.0000   0.0314  -0.0000
2509 H_u :2px   -0.1182  -0.9189   0.0000  -0.3837   0.0000   0.3734
2510 H_u :2py    0.1723  -0.1757  -0.0000   2.2133  -0.0000  -1.4489
2511 H_u :2pz   -0.0000   0.0000   0.0826   0.0000  -0.2208   0.0000
2512 H_u :2px    0.6186  -0.1168   0.0000 -10.5752   0.0000   9.9023
2513 H_u :2py   -1.9159   2.8583   0.0000  -0.5559   0.0000   9.1324
2514 H_u :2pz    0.0000  -0.0000  -1.1868  -0.0000  -9.6832  -0.0000
2515 H_u :2px  -18.2975  -7.1041  -0.0000   3.9065   0.0000 -19.2112
2516 H_u :2py   -0.5072  -6.9337  -0.0000   6.2846  -0.0000  -3.7005
2517 H_u :2pz    0.0000   0.0000   0.4064   0.0000   4.3354   0.0000
2518 H_u :3d2-   0.0009   0.0356  -0.0000   0.1083  -0.0000  -0.0566
2519 H_u :3d1-   0.0000  -0.0000   0.0063   0.0000  -0.0433   0.0000
2520 H_u :3d0   -0.0048   0.0028  -0.0000   0.0640  -0.0000  -0.0304
2521 H_u :3d1+   0.0000  -0.0000   0.0110   0.0000  -0.0199  -0.0000
2522 H_u :3d2+   0.0066  -0.0067  -0.0000   0.0463   0.0000  -0.0393
2523 H_u :3d2-  -0.3718   0.0546  -0.0000   0.3671  -0.0000  -0.5575
2524 H_u :3d1-  -0.0000   0.0000  -0.2742  -0.0000   0.6872  -0.0000
2525 H_u :3d0   -0.2476   0.0797  -0.0000   0.1914  -0.0000  -0.0758
2526 H_u :3d1+   0.0000  -0.0000  -0.2380  -0.0000   0.1465  -0.0000
2527 H_u :3d2+  -0.2478  -0.6435  -0.0000   0.6599  -0.0000  -0.4418
2528 H_u :3d2-   0.6646  -0.2837  -0.0000  -0.0113   0.0000   1.7921
2529 H_u :3d1-  -0.0000  -0.0000  -1.2764  -0.0000   6.0866  -0.0000
2530 H_u :3d0   -0.1822   2.1223   0.0000  -0.3607  -0.0000  -0.1491
2531 H_u :3d1+  -0.0000  -0.0000  -3.9832  -0.0000   5.4990   0.0000
2532 H_u :3d2+ -12.0293  -4.8833  -0.0000   7.5311  -0.0000  -6.3549
2533 H_v :1s     0.0173   0.1458   0.0000  -0.3752   0.0000   0.1622
2534 H_v :1s    -0.0111  -4.0969  -0.0000   5.6925  -0.0000  -4.2207
2535 H_v :1s   -12.3667 -11.3708  -0.0000   7.4644   0.0000 -22.3531
2536 H_v :1s     9.6279  -1.6820   0.0000  -5.5487   0.0000   3.9288
2537 H_v :1s    -3.5539   2.8373   0.0000 -14.9579   0.0000  14.0221
2538 H_v :2px    0.0059  -0.0081   0.0000  -0.0102  -0.0000  -0.0153
2539 H_v :2py    0.0156  -0.0835   0.0000   0.0049  -0.0000  -0.0221
2540 H_v :2pz   -0.0000   0.0000   0.0095  -0.0000  -0.0104   0.0000
2541 H_v :2px    0.4016   1.6054   0.0000  -1.3907   0.0000   0.1327
2542 H_v :2py    0.2125  -0.3061  -0.0000   1.5446  -0.0000  -0.7025
2543 H_v :2pz    0.0000   0.0000   0.1826   0.0000  -0.1081   0.0000
2544 H_v :2px   -5.6700   4.3637   0.0000 -10.8254   0.0000  15.7654
2545 H_v :2py   -6.4971  11.2068  -0.0000   1.2179   0.0000   1.8544
2546 H_v :2pz   -0.0000   0.0000   7.0266   0.0000   1.9519   0.0000
2547 H_v :2px  -15.0591   2.3665   0.0000  -7.5857   0.0000  -5.2556
2548 H_v :2py    6.4353  11.1206   0.0000  -2.3203  -0.0000  -1.1659
2549 H_v :2pz    0.0000   0.0000  -2.5190  -0.0000  -0.1660  -0.0000
2550 H_v :3d2-   0.0062   0.0543   0.0000  -0.0917   0.0000   0.0135
2551 H_v :3d1-  -0.0000  -0.0000   0.0228   0.0000   0.0128  -0.0000
2552 H_v :3d0    0.0125   0.0683   0.0000  -0.0406   0.0000  -0.0076
2553 H_v :3d1+  -0.0000   0.0000  -0.0129  -0.0000   0.0335   0.0000
2554 H_v :3d2+  -0.0410  -0.0134  -0.0000  -0.0030  -0.0000   0.0216
2555 H_v :3d2-  -0.0854   0.4846   0.0000  -0.1936   0.0000  -0.5188
2556 H_v :3d1-  -0.0000   0.0000   0.0757  -0.0000  -0.1799   0.0000
2557 H_v :3d0   -0.0618  -0.3970   0.0000  -0.2270  -0.0000   0.0432
2558 H_v :3d1+  -0.0000  -0.0000  -0.1498  -0.0000  -0.1844  -0.0000
2559 H_v :3d2+   0.0415  -0.6772  -0.0000   0.1949  -0.0000   0.0842
2560 H_v :3d2-  -0.5987   0.1458  -0.0000   0.8262  -0.0000  -1.4799
2561 H_v :3d1-  -0.0000   0.0000  -1.3757  -0.0000  -1.7512   0.0000
2562 H_v :3d0   -3.1038  -0.9545   0.0000  -0.0483  -0.0000   4.6789
2563 H_v :3d1+  -0.0000   0.0000  -0.2850  -0.0000  -2.4561   0.0000
2564 H_v :3d2+   0.4942   0.4192  -0.0000   4.7367  -0.0000   1.5915
2565 H_w :1s     0.0298   0.0294  -0.0000   0.1911   0.0000   0.1578
2566 H_w :1s     3.1653   0.0078  -0.0000   0.1529  -0.0000  -3.3438
2567 H_w :1s    15.7333   3.0975   0.0000  -1.2771  -0.0000 -12.5997
2568 H_w :1s   -10.5898  -7.3809  -0.0000   0.9218   0.0000  -9.6498
2569 H_w :1s     5.2223   6.6082   0.0000  -7.9004   0.0000  -1.3423
2570 H_w :2px   -0.0217  -0.0206   0.0000   0.0015   0.0000  -0.0168
2571 H_w :2py   -0.0193   0.0301  -0.0000   0.0461   0.0000   0.0053
2572 H_w :2pz   -0.0000  -0.0000   0.0069  -0.0000   0.0307   0.0000
2573 H_w :2px    0.9185   0.4818   0.0000  -0.5864  -0.0000  -0.5417
2574 H_w :2py   -0.1023  -0.6895   0.0000  -0.6923   0.0000   1.0529
2575 H_w :2pz    0.0000  -0.0000   0.1279   0.0000  -0.3204  -0.0000
2576 H_w :2px    7.4328   1.8247  -0.0000   1.4427  -0.0000   8.5087
2577 H_w :2py   -2.2019  -0.5677  -0.0000   1.1226  -0.0000   7.1452
2578 H_w :2pz    0.0000   0.0000   1.3676   0.0000   1.0473  -0.0000
2579 H_w :2px    4.0225   1.7615  -0.0000  11.2747  -0.0000   4.3883
2580 H_w :2py   16.4924   5.5227  -0.0000   5.5694  -0.0000  12.7705
2581 H_w :2pz   -0.0000  -0.0000  -2.7861  -0.0000   1.2739   0.0000
2582 H_w :3d2-  -0.0242  -0.0392  -0.0000   0.0170   0.0000   0.0323
2583 H_w :3d1-   0.0000   0.0000  -0.0026  -0.0000  -0.0177   0.0000
2584 H_w :3d0   -0.0116  -0.0190  -0.0000   0.0310   0.0000   0.0405
2585 H_w :3d1+   0.0000   0.0000   0.0105   0.0000  -0.0262   0.0000
2586 H_w :3d2+   0.0042  -0.0006   0.0000  -0.0219  -0.0000   0.0090
2587 H_w :3d2-   0.1184  -0.1319  -0.0000   0.0853   0.0000   0.3295
2588 H_w :3d1-   0.0000   0.0000   0.0612   0.0000   0.2188  -0.0000
2589 H_w :3d0    0.0898  -0.2922   0.0000  -0.1726   0.0000  -0.1507
2590 H_w :3d1+   0.0000  -0.0000   0.1091   0.0000   0.0745  -0.0000
2591 H_w :3d2+   0.6351  -0.2464   0.0000  -0.6400   0.0000   0.3497
2592 H_w :3d2-  -0.0644  -0.8423   0.0000  -0.6769   0.0000   0.6581
2593 H_w :3d1-  -0.0000  -0.0000  -2.5191  -0.0000   0.8174  -0.0000
2594 H_w :3d0    1.7598  -1.7986   0.0000  -1.3752   0.0000   0.7178
2595 H_w :3d1+  -0.0000  -0.0000   0.6127   0.0000   3.0345  -0.0000
2596 H_w :3d2+  -1.6779  -4.7294  -0.0000   0.1215   0.0000  -1.2983
2597 H_x :1s    -0.1949   0.4243   0.0000  -0.0272   0.0000   0.0336
2598 H_x :1s     3.2600  -3.9730  -0.0000   0.4957  -0.0000  -0.7955
2599 H_x :1s     0.3641 -10.6823  -0.0000   1.4186  -0.0000  -1.8957
2600 H_x :1s    -0.0123  -2.7565   0.0000  -2.2939   0.0000  -6.6663
2601 H_x :1s     1.5828   4.9661   0.0000  -0.1238  -0.0000  -0.6031
2602 H_x :2px   -0.0327   0.0251   0.0000  -0.0703   0.0000   0.0653
2603 H_x :2py    0.0079  -0.0325   0.0000  -0.0093  -0.0000   0.0102
2604 H_x :2pz    0.0000  -0.0000  -0.0341  -0.0000   0.0033  -0.0000
2605 H_x :2px   -1.1023   0.7130   0.0000  -0.0479   0.0000  -0.6568
2606 H_x :2py    0.8789  -0.8838  -0.0000   1.1300  -0.0000  -0.2265
2607 H_x :2pz   -0.0000  -0.0000   0.3664   0.0000  -0.0938   0.0000
2608 H_x :2px   -0.3498   3.8969  -0.0000   5.3944  -0.0000  -1.4066
2609 H_x :2py    2.5341  -5.9360   0.0000  -2.0794   0.0000  -1.1934
2610 H_x :2pz   -0.0000   0.0000  -1.9019  -0.0000  -8.7014   0.0000
2611 H_x :2px    2.6139   1.8244  -0.0000  12.5520  -0.0000   0.6260
2612 H_x :2py   -8.5353 -15.9375   0.0000  -5.1028   0.0000  -9.1933
2613 H_x :2pz   -0.0000  -0.0000   3.4442   0.0000  -0.4903   0.0000
2614 H_x :3d2-  -0.0714   0.0354   0.0000  -0.0380   0.0000  -0.0365
2615 H_x :3d1-   0.0000   0.0000  -0.0028  -0.0000   0.0289   0.0000
2616 H_x :3d0   -0.0552   0.0532   0.0000  -0.0478   0.0000  -0.0039
2617 H_x :3d1+  -0.0000  -0.0000   0.0067   0.0000   0.0130   0.0000
2618 H_x :3d2+   0.0043   0.0075   0.0000  -0.0208  -0.0000   0.0229
2619 H_x :3d2-  -0.2471   0.3061   0.0000  -0.5350   0.0000   0.2091
2620 H_x :3d1-  -0.0000  -0.0000   0.3515   0.0000  -0.4368  -0.0000
2621 H_x :3d0   -0.0905  -0.0137   0.0000  -0.0245   0.0000  -0.2823
2622 H_x :3d1+   0.0000   0.0000  -0.0170  -0.0000  -0.0770  -0.0000
2623 H_x :3d2+   0.3704  -0.0307   0.0000  -0.5459   0.0000   0.4217
2624 H_x :3d2-   2.9223   3.7337  -0.0000   2.0616  -0.0000  -1.3213
2625 H_x :3d1-   0.0000   0.0000   0.5766   0.0000  -2.8083   0.0000
2626 H_x :3d0    1.5993   0.7198   0.0000  -1.1668   0.0000  -1.2653
2627 H_x :3d1+   0.0000   0.0000  -1.8488  -0.0000  -0.4818   0.0000
2628 H_x :3d2+   1.9438  -2.2398   0.0000  -0.1058  -0.0000   1.1135
2629 H_y :1s    -0.1151  -0.1433  -0.0000   0.0176   0.0000  -0.2184
2630 H_y :1s     0.1871   0.8328  -0.0000   0.4219  -0.0000   7.7400
2631 H_y :1s    -0.0348 -11.2402  -0.0000  30.5146  -0.0000  18.3470
2632 H_y :1s    -9.4335 -15.4782  -0.0000   2.5946  -0.0000 -12.1245
2633 H_y :1s    -6.6311  -5.6978  -0.0000   3.4594  -0.0000   2.9029
2634 H_y :2px    0.0197   0.0517  -0.0000   0.0133  -0.0000   0.0111
2635 H_y :2py    0.0149   0.0100   0.0000  -0.0212  -0.0000   0.0193
2636 H_y :2pz   -0.0000   0.0000  -0.0119  -0.0000  -0.0145   0.0000
2637 H_y :2px   -0.3230   0.0358   0.0000  -0.5011  -0.0000   0.8284
2638 H_y :2py    0.1877  -0.1041  -0.0000   0.5006   0.0000  -1.6255
2639 H_y :2pz   -0.0000  -0.0000   0.1015   0.0000  -0.0792   0.0000
2640 H_y :2px    0.1517  -2.5337  -0.0000   6.0498  -0.0000  11.0377
2641 H_y :2py    3.9965   4.6598  -0.0000   2.5606   0.0000  -0.8320
2642 H_y :2pz   -0.0000   0.0000  -2.2507  -0.0000  -2.1220   0.0000
2643 H_y :2px   -0.0531  -0.0701   0.0000   0.0534  -0.0000   7.7520
2644 H_y :2py   13.1108  11.6277  -0.0000   1.7393   0.0000  12.8188
2645 H_y :2pz    0.0000   0.0000   1.5254   0.0000  -0.5751  -0.0000
2646 H_y :3d2-   0.0273   0.0022  -0.0000   0.0292   0.0000  -0.0490
2647 H_y :3d1-   0.0000   0.0000   0.0071   0.0000   0.0201   0.0000
2648 H_y :3d0    0.0122  -0.0046  -0.0000   0.0120   0.0000   0.0011
2649 H_y :3d1+   0.0000  -0.0000   0.0009   0.0000  -0.0142  -0.0000
2650 H_y :3d2+   0.0008   0.0072   0.0000  -0.0201  -0.0000  -0.0310
2651 H_y :3d2-   0.2032  -0.3202  -0.0000   0.3436   0.0000  -0.0105
2652 H_y :3d1-   0.0000   0.0000   0.0444  -0.0000  -0.0013  -0.0000
2653 H_y :3d0    0.0616   0.1508  -0.0000   0.3711  -0.0000   0.1754
2655 H_y :3d2+   0.0197  -0.0656  -0.0000   0.2618  -0.0000  -0.5799
2656 H_y :3d2-  -1.0814   5.4529   0.0000  -0.3373  -0.0000   3.3173
2657 H_y :3d1-   0.0000  -0.0000  -0.3219  -0.0000   2.3574   0.0000
2658 H_y :3d0   -1.2891  -3.8744  -0.0000   0.8896   0.0000  -2.1193
2659 H_y :3d1+   0.0000  -0.0000  -0.2928  -0.0000   0.4692   0.0000
2660 H_y :3d2+  -2.1111  -1.3456  -0.0000   1.5071   0.0000  -1.5216
2661 H_z :1s     0.1304   0.0607   0.0000  -0.2480  -0.0000   0.0785
2662 H_z :1s    -3.6123   1.4563   0.0000  -1.0430   0.0000  -3.4641
2663 H_z :1s     2.6896 -10.0221   0.0000 -12.6524   0.0000 -26.1511
2664 H_z :1s    -8.7670   9.8758  -0.0000  14.1042  -0.0000  10.0203
2665 H_z :1s     3.6712   3.1864   0.0000  -9.5621   0.0000   9.1800
2666 H_z :2px    0.0162  -0.0262   0.0000  -0.0434  -0.0000  -0.0164
2667 H_z :2py   -0.0226  -0.0198  -0.0000   0.0139   0.0000   0.0064
2669 H_z :2px    0.6385  -0.1599  -0.0000   0.8692  -0.0000  -0.3340
2670 H_z :2py   -0.6877   0.7980  -0.0000   0.1551   0.0000  -1.5534
2671 H_z :2pz   -0.0000  -0.0000   0.1710   0.0000  -0.1065  -0.0000
2672 H_z :2px   13.4933   8.5572  -0.0000   1.2786  -0.0000   8.0478
2673 H_z :2py    0.9176   3.5284   0.0000  -3.9681   0.0000   5.2544
2674 H_z :2pz    0.0000  -0.0000   1.4574   0.0000   0.9406  -0.0000
2675 H_z :2px   -5.7607  -9.2767   0.0000 -10.8457   0.0000  -7.6031
2676 H_z :2py    2.0618   3.0738   0.0000  -0.7950  -0.0000   2.7397
2677 H_z :2pz    0.0000   0.0000   1.1633   0.0000   0.0073  -0.0000
2678 H_z :3d2-   0.0413  -0.0345  -0.0000   0.0363  -0.0000   0.0222
2679 H_z :3d1-  -0.0000  -0.0000   0.0143   0.0000  -0.0054  -0.0000
2680 H_z :3d0    0.0056  -0.0255   0.0000  -0.0273  -0.0000   0.0179
2682 H_z :3d2+   0.0248  -0.0069   0.0000  -0.0309   0.0000   0.0446
2683 H_z :3d2-   0.2582   0.0034   0.0000  -0.1020   0.0000  -0.0909
2684 H_z :3d1-  -0.0000   0.0000  -0.0392  -0.0000  -0.0739   0.0000
2685 H_z :3d0    0.2386   0.1173  -0.0000   0.0341  -0.0000  -0.1357
2686 H_z :3d1+   0.0000   0.0000  -0.1704  -0.0000  -0.0974   0.0000
2687 H_z :3d2+  -0.3360  -0.3462   0.0000  -0.4284  -0.0000   0.9740
2688 H_z :3d2-  -2.5204  -0.8654   0.0000  -0.2115  -0.0000   1.5287
2689 H_z :3d1-   0.0000  -0.0000  -3.1460  -0.0000  -1.6706  -0.0000
2690 H_z :3d0    4.2433  -0.2899   0.0000  -1.1552   0.0000  -2.6117
2691 H_z :3d1+  -0.0000  -0.0000  -3.4014  -0.0000  -1.1242   0.0000
2692 H_z :3d2+  -6.5045   2.9151   0.0000  -0.1122  -0.0000   2.9209
2693 H_{ :1s     0.2053  -0.1881  -0.0000   0.0284  -0.0000  -0.0226
2694 H_{ :1s    -1.5450   1.6581   0.0000  -1.5145  -0.0000   0.9509
2695 H_{ :1s     5.1326   4.6423   0.0000  -6.7647  -0.0000   0.7525
2696 H_{ :1s   -19.2213  10.4847   0.0000 -16.4059   0.0000   0.0124
2697 H_{ :1s    -2.8876   1.5766  -0.0000   5.2770  -0.0000   0.4089
2698 H_{ :2px   -0.0343   0.0129   0.0000  -0.0003  -0.0000  -0.0119
2699 H_{ :2py    0.0059   0.0150  -0.0000   0.0128   0.0000  -0.0337
2700 H_{ :2pz    0.0000   0.0000   0.0166  -0.0000   0.0001   0.0000
2701 H_{ :2px   -0.2043   0.3973   0.0000  -0.2121  -0.0000   0.6359
2702 H_{ :2py    0.3422  -0.4200  -0.0000   0.1369   0.0000  -0.0494
2703 H_{ :2pz    0.0000  -0.0000  -0.2075  -0.0000  -0.1108  -0.0000
2704 H_{ :2px   -0.4656  -0.3251   0.0000  -2.0658  -0.0000  -1.8763
2705 H_{ :2py    0.3552   0.5549  -0.0000   1.0401   0.0000  -1.3885
2706 H_{ :2pz    0.0000  -0.0000   1.2734   0.0000  -1.0079   0.0000
2707 H_{ :2px   -5.6899  -0.8186   0.0000 -19.6370   0.0000   2.7494
2708 H_{ :2py    3.2822  -4.8373  -0.0000   0.9414  -0.0000   0.3547
2709 H_{ :2pz   -0.0000  -0.0000   2.0916   0.0000   0.2691   0.0000
2710 H_{ :3d2-   0.0173  -0.0425   0.0000  -0.0031   0.0000  -0.0285
2711 H_{ :3d1-  -0.0000  -0.0000   0.0114   0.0000   0.0090   0.0000
2712 H_{ :3d0    0.0470  -0.0266   0.0000  -0.0021   0.0000  -0.0352
2713 H_{ :3d1+   0.0000   0.0000   0.0101  -0.0000   0.0028  -0.0000
2714 H_{ :3d2+   0.0268  -0.0115  -0.0000  -0.0042   0.0000   0.0189
2715 H_{ :3d2-   0.2004   0.1195  -0.0000   0.2706  -0.0000  -0.3006
2716 H_{ :3d1-  -0.0000   0.0000   0.1423   0.0000   0.0449   0.0000
2717 H_{ :3d0   -0.2553  -0.0812   0.0000  -0.0345   0.0000   0.1125
2718 H_{ :3d1+   0.0000   0.0000  -0.1436  -0.0000  -0.1400  -0.0000
2719 H_{ :3d2+  -0.3418   0.1768   0.0000  -0.0867   0.0000   0.2415
2720 H_{ :3d2-   3.4260  -1.1383  -0.0000   4.1221  -0.0000   2.1225
2721 H_{ :3d1-  -0.0000   0.0000  -0.0024   0.0000  -0.2162   0.0000
2722 H_{ :3d0   -2.1274   1.0334   0.0000  -2.6523   0.0000  -0.9681
2723 H_{ :3d1+  -0.0000   0.0000   0.2732  -0.0000  -1.0126   0.0000
2724 H_{ :3d2+   3.5572  -2.3700  -0.0000   2.2884  -0.0000  -1.6120
2725 H_| :1s     0.1364   0.1119   0.0000  -0.1498  -0.0000   0.0187
2726 H_| :1s    -0.1775  -1.0969  -0.0000   0.9493   0.0000  -0.6761
2727 H_| :1s   -12.0331  15.7307  -0.0000   6.3317   0.0000   8.7987
2728 H_| :1s    20.0030 -20.5191  -0.0000  38.7653  -0.0000 -23.6786
2729 H_| :1s     2.5367   1.9838   0.0000  -3.6065   0.0000   3.5852
2730 H_| :2px    0.0552   0.0221   0.0000  -0.0216   0.0000   0.0328
2731 H_| :2py    0.0108  -0.0381   0.0000  -0.0016  -0.0000  -0.0317
2732 H_| :2pz    0.0000  -0.0000   0.0242   0.0000   0.0007   0.0000
2733 H_| :2px   -0.1510   0.3610   0.0000  -0.4188  -0.0000  -0.0813
2734 H_| :2py    0.5007   0.1649   0.0000  -0.3013   0.0000  -0.0838
2735 H_| :2pz   -0.0000   0.0000  -0.3311  -0.0000  -0.0299   0.0000
2736 H_| :2px    4.1467  -3.9312   0.0000  -3.9838  -0.0000  -2.1263
2737 H_| :2py   -0.9808  -2.2139   0.0000  -2.2741   0.0000  -0.2848
2738 H_| :2pz   -0.0000  -0.0000   0.4351   0.0000   1.2972  -0.0000
2739 H_| :2px   -2.7561   4.8374   0.0000 -12.1049   0.0000   3.7278
2740 H_| :2py    1.7520   1.1674  -0.0000   2.4255   0.0000   3.1271
2741 H_| :2pz   -0.0000  -0.0000  -0.8424  -0.0000   0.5925  -0.0000
2742 H_| :3d2-  -0.0372  -0.0025  -0.0000   0.0248  -0.0000   0.0074
2743 H_| :3d1-   0.0000   0.0000  -0.0104  -0.0000  -0.0006   0.0000
2744 H_| :3d0   -0.0194   0.0235   0.0000  -0.0227  -0.0000  -0.0038
2746 H_| :3d2+  -0.0177  -0.0220  -0.0000   0.0368  -0.0000   0.0071
2747 H_| :3d2-  -0.3021  -0.0289  -0.0000   0.1406   0.0000   0.2249
2748 H_| :3d1-   0.0000  -0.0000   0.1087   0.0000   0.0917  -0.0000
2749 H_| :3d0    0.2289   0.0130   0.0000  -0.1277  -0.0000  -0.1633
2750 H_| :3d1+   0.0000  -0.0000   0.3356   0.0000   0.1017  -0.0000
2751 H_| :3d2+   0.1602  -0.1060  -0.0000   0.0326   0.0000  -0.0381
2752 H_| :3d2-   0.7865  -0.4189  -0.0000   1.5539  -0.0000  -0.1262
2753 H_| :3d1-  -0.0000   0.0000   0.9821   0.0000  -0.3550   0.0000
2754 H_| :3d0    1.4828  -0.1805   0.0000  -2.0510   0.0000  -0.6363
2755 H_| :3d1+   0.0000   0.0000   0.6483   0.0000  -0.2780   0.0000
2756 H_| :3d2+   0.7095  -0.5595  -0.0000   0.5296   0.0000  -1.8969

  Total CPU  time used in SIRIUS :  40 hours 55 minutes 12 seconds
  Total wall time used in SIRIUS :  41 hours  7 minutes 55 seconds

 
     Date and time (Linux)  : Wed Jun  4 06:32:51 2025
     Host name              : xm054                                   

 NOTE:    3 warnings have been issued.
 Check output, result, and error files for "WARNING".


                     .---------------------------------------.
                     | End of Wave Function Section (SIRIUS) |
                     `---------------------------------------'


@ - DALTON aborted because wave function not converged!

  --- SEVERE ERROR, PROGRAM WILL BE ABORTED ---
     Date and time (Linux)  : Wed Jun  4 06:32:51 2025
     Host name              : xm054                                   

@ MPI MASTER, node no.:     0
@ Reason: DALTON aborted because wave function not converged

  Total CPU  time used in DALTON:  40 hours 56 minutes 12 seconds
  Total wall time used in DALTON:  41 hours  8 minutes 56 seconds


 QTRACE dump of internal trace stack

 ========================
      level    module
 ========================
          3    SIRIUS      
          2    DALTON      
          1    DALTON main 
 ========================

