

     ************************************************************************
     *************** Dalton - An Electronic Structure Program ***************
     ************************************************************************

    This is output from DALTON release Dalton2020.0 (2020)
         ( Web site: http://daltonprogram.org )

   ----------------------------------------------------------------------------

    NOTE:
     
    Dalton is an experimental code for the evaluation of molecular
    properties using (MC)SCF, DFT, CI, and CC wave functions.
    The authors accept no responsibility for the performance of
    the code or for the correctness of the results.
     
    The code (in whole or part) is provided under a licence and
    is not to be reproduced for further distribution without
    the written permission of the authors or their representatives.
     
    See the home page "http://daltonprogram.org" for further information.
     
    If results obtained with this code are published,
    the appropriate citations would be both of:
     
       K. Aidas, C. Angeli, K. L. Bak, V. Bakken, R. Bast,
       L. Boman, O. Christiansen, R. Cimiraglia, S. Coriani,
       P. Dahle, E. K. Dalskov, U. Ekstroem,
       T. Enevoldsen, J. J. Eriksen, P. Ettenhuber, B. Fernandez,
       L. Ferrighi, H. Fliegl, L. Frediani, K. Hald, A. Halkier,
       C. Haettig, H. Heiberg, T. Helgaker, A. C. Hennum,
       H. Hettema, E. Hjertenaes, S. Hoest, I.-M. Hoeyvik,
       M. F. Iozzi, B. Jansik, H. J. Aa. Jensen, D. Jonsson,
       P. Joergensen, J. Kauczor, S. Kirpekar,
       T. Kjaergaard, W. Klopper, S. Knecht, R. Kobayashi, H. Koch,
       J. Kongsted, A. Krapp, K. Kristensen, A. Ligabue,
       O. B. Lutnaes, J. I. Melo, K. V. Mikkelsen, R. H. Myhre,
       C. Neiss, C. B. Nielsen, P. Norman, J. Olsen,
       J. M. H. Olsen, A. Osted, M. J. Packer, F. Pawlowski,
       T. B. Pedersen, P. F. Provasi, S. Reine, Z. Rinkevicius,
       T. A. Ruden, K. Ruud, V. Rybkin, P. Salek, C. C. M. Samson,
       A. Sanchez de Meras, T. Saue, S. P. A. Sauer,
       B. Schimmelpfennig, K. Sneskov, A. H. Steindal,
       K. O. Sylvester-Hvid, P. R. Taylor, A. M. Teale,
       E. I. Tellgren, D. P. Tew, A. J. Thorvaldsen, L. Thoegersen,
       O. Vahtras, M. A. Watson, D. J. D. Wilson, M. Ziolkowski
       and H. Agren,
       "The Dalton quantum chemistry program system",
       WIREs Comput. Mol. Sci. 2014, 4:269–284 (doi: 10.1002/wcms.1172)
     
    and
     
       Dalton, a molecular electronic structure program,
       Release Dalton2020.0 (2020), see http://daltonprogram.org
   ----------------------------------------------------------------------------

    Authors in alphabetical order (Major contribution(s) in parenthesis):

  Kestutis Aidas,           Vilnius University,           Lithuania   (QM/MM)
  Celestino Angeli,         University of Ferrara,        Italy       (NEVPT2)
  Keld L. Bak,              UNI-C,                        Denmark     (AOSOPPA, non-adiabatic coupling, magnetic properties)
  Vebjoern Bakken,          University of Oslo,           Norway      (DALTON; geometry optimizer, symmetry detection)
  Radovan Bast,             UiT The Arctic U. of Norway,  Norway      (DALTON installation and execution frameworks)
  Pablo Baudin,             University of Valencia,       Spain       (Cholesky excitation energies)
  Linus Boman,              NTNU,                         Norway      (Cholesky decomposition and subsystems)
  Bruno N. Cabral Tenorio,  Technical Univ. of Denmark,   Denmark     (Lanczos-based CC methods)
  Ove Christiansen,         Aarhus University,            Denmark     (CC module)
  Renzo Cimiraglia,         University of Ferrara,        Italy       (NEVPT2)
  Sonia Coriani,            Technical Univ. of Denmark,   Denmark     (CC and RESPONS modules)
  Janusz Cukras,            University of Warsaw,         Poland      (MChD in RESPONS)
  Paal Dahle,               University of Oslo,           Norway      (Parallelization)
  Erik K. Dalskov,          UNI-C,                        Denmark     (SOPPA)
  Thomas Enevoldsen,        Univ. of Southern Denmark,    Denmark     (SOPPA)
  Janus J. Eriksen,         Aarhus University,            Denmark     (Polarizable embedding, TDA)
  Rasmus Faber,             Technical Univ. of Denmark,   Denmark     (Vib.avg. NMR w. SOPPA, parallel AO-SOPPA, CVS-CC and EOMCC)
  Tobias Fahleson,          KTH Stockholm,                Sweden      (Damped cubic response)
  Berta Fernandez,          U. of Santiago de Compostela, Spain       (Doublet spin, ESR in RESPONS)
  Lara Ferrighi,            Aarhus University,            Denmark     (PCM Cubic response)
  Heike Fliegl,             University of Oslo,           Norway      (CCSD(R12))
  Luca Frediani,            UiT The Arctic U. of Norway,  Norway      (PCM)
  Emmanuel Fromager,        Univ. Strasbourg,             France      (MC-srDFT)
  Bin Gao,                  UiT The Arctic U. of Norway,  Norway      (Gen1Int library)
  Andre S. P. Gomes,        CNRS/Universite de Lille,     France      (Frozen density embedding)
  Christof Haettig,         Ruhr-University Bochum,       Germany     (CC module)
  Kasper Hald,              Aarhus University,            Denmark     (CC module)
  Asger Halkier,            Aarhus University,            Denmark     (CC module)
  Frederik Beyer Hansen,    University of Copenhagen,     Denmark     (Parallel AO-SOPPA)
  Erik D. Hedegaard,        Univ. of Southern Denmark,    Denmark     (Polarizable embedding, QM/MM, and MC-srDFT)
  Hanne Heiberg,            University of Oslo,           Norway      (Geometry analysis, selected one-electron integrals)
  Trygve Helgaker,          University of Oslo,           Norway      (DALTON; ABACUS, ERI, DFT modules, London, and much more)
  Alf Christian Hennum,     University of Oslo,           Norway      (Parity violation)
  Hinne Hettema,            University of Auckland,       New Zealand (Quadratic response in RESPONS; SIRIUS supersymmetry)
  Eirik Hjertenaes,         NTNU,                         Norway      (Cholesky decomposition)
  Pi A. B. Haase,           University of Copenhagen,     Denmark     (Triplet AO-SOPPA)
  Maria Francesca Iozzi,    University of Oslo,           Norway      (RPA)
  Christoph Jacob           TU Braunschweig               Germany     (Frozen density embedding)
  Brano Jansik              Technical Univ. of Ostrava    Czech Rep.  (DFT cubic response)
  Hans Joergen Aa. Jensen,  Univ. of Southern Denmark,    Denmark     (DALTON; SIRIUS, RESPONS, ABACUS, MC-srDFT, and much more)
  Dan Jonsson,              UiT The Arctic U. of Norway,  Norway      (Cubic response in RESPONS module)
  Poul Joergensen,          Aarhus University,            Denmark     (RESPONS, ABACUS, and CC modules)
  Maciej Kaminski,          University of Warsaw,         Poland      (CPPh in RESPONS)
  Joanna Kauczor,           Linkoeping University,        Sweden      (Complex polarization propagator (CPP) module)
  Sheela Kirpekar,          Univ. of Southern Denmark,    Denmark     (Mass-velocity & Darwin integrals)
  Erik Kjellgren,           Univ. of Southern Denmark,    Denmark     (MC-srDFT)
  Wim Klopper,              KIT Karlsruhe,                Germany     (R12 code in CC, SIRIUS, and ABACUS modules)
  Stefan Knecht,            ETH Zurich,                   Switzerland (Parallel CI and MCSCF, MC-srDFT)
  Rika Kobayashi,           Australian National Univ.,    Australia   (DIIS in CC, London in MCSCF)
  Henrik Koch,              NTNU,                         Norway      (CC module, Cholesky decomposition)
  Jacob Kongsted,           Univ. of Southern Denmark,    Denmark     (Polarizable embedding, polarizable density embedding, QM/MM)
  Andrea Ligabue,           University of Modena,         Italy       (CTOCD, AOSOPPA)
  Nanna H. List             Univ. of Southern Denmark,    Denmark     (Polarizable embedding)
  Ola B. Lutnaes,           University of Oslo,           Norway      (DFT Hessian)
  Juan I. Melo,             University of Buenos Aires,   Argentina   (LRESC, Relativistic Effects on NMR Shieldings)
  Kurt V. Mikkelsen,        University of Copenhagen,     Denmark     (MC-SCRF and QM/MM)
  Rolf H. Myhre,            NTNU,                         Norway      (Subsystems and CC3)
  Christian Neiss,          Univ. Erlangen-Nuernberg,     Germany     (CCSD(R12))
  Christian B. Nielsen,     University of Copenhagen,     Denmark     (QM/MM)
  Patrick Norman,           KTH Stockholm,                Sweden      (Cubic response and complex frequency response in RESPONS)
  Jeppe Olsen,              Aarhus University,            Denmark     (SIRIUS CI/density modules)
  Jogvan Magnus H. Olsen,   Aarhus University,            Denmark     (Polarizable embedding and polarizable density embedding)
  Anders Osted,             Copenhagen University,        Denmark     (QM/MM)
  Martin J. Packer,         University of Sheffield,      UK          (SOPPA)
  Filip Pawlowski,          Kazimierz Wielki University,  Poland      (CC3)
  Morten N. Pedersen,       Univ. of Southern Denmark,    Denmark     (Polarizable embedding)
  Thomas B. Pedersen,       University of Oslo,           Norway      (Cholesky decomposition)
  Patricio F. Provasi,      University of Northeastern,   Argentina   (Analysis of coupling constants in localized orbitals)
  Peter Reinholdt,          Univ. of Southern Denmark,    Denmark     (Polarizable embedding and polarizable density embedding)
  Zilvinas Rinkevicius,     KTH Stockholm,                Sweden      (open-shell DFT, ESR)
  Elias Rudberg,            KTH Stockholm,                Sweden      (DFT grid and basis info)
  Torgeir A. Ruden,         University of Oslo,           Norway      (Numerical derivatives in ABACUS)
  Kenneth Ruud,             UiT The Arctic U. of Norway,  Norway      (DALTON; ABACUS magnetic properties and much more)
  Pawel Salek,              KTH Stockholm,                Sweden      (DALTON; DFT code)
  Claire C. M. Samson       University of Karlsruhe       Germany     (Boys localization, r12 integrals in ERI)
  Alfredo Sanchez de Meras, University of Valencia,       Spain       (CC module, Cholesky decomposition)
  Trond Saue,               Paul Sabatier University,     France      (direct Fock matrix construction)
  Stephan P. A. Sauer,      University of Copenhagen,     Denmark     (SOPPA(CCSD), SOPPA prop., AOSOPPA, vibrational g-factors)
  Bernd Schimmelpfennig,    Forschungszentrum Karlsruhe,  Germany     (AMFI module)
  Anna K. Schnack-Petersen, University of Copenhagen,     Denmark     (RPA(D) and HRPA(D) properties in AOSOPPA)
  Kristian Sneskov,         Aarhus University,            Denmark     (Polarizable embedding, QM/MM)
  Arnfinn H. Steindal,      UiT The Arctic U. of Norway,  Norway      (parallel QM/MM, polarizable embedding)
  Casper Steinmann,         Aalborg University,           Denmark     (QFIT, polarizable embedding)
  K. O. Sylvester-Hvid,     University of Copenhagen,     Denmark     (MC-SCRF)
  Peter R. Taylor,          VLSCI/Univ. of Melbourne,     Australia   (Symmetry handling ABACUS, integral transformation)
  Andrew M. Teale,          University of Nottingham,     England     (DFT-AC, DFT-D)
  David P. Tew,             University of Bristol,        England     (CCSD(R12))
  Julien Toulouse,          Sorbonne Univ.,               France      (MC-srDFT)
  Olav Vahtras,             KTH Stockholm,                Sweden      (Triplet response, spin-orbit, ESR, TDDFT, open-shell DFT)
  Lucas Visscher,           Vrije Universiteit Amsterdam, Netherlands (Frozen density embedding)
  David J. Wilson,          La Trobe University,          Australia   (DFT Hessian and DFT magnetizabilities)
  Hans Agren,               KTH Stockholm,                Sweden      (SIRIUS module, RESPONS, MC-SCRF solvation)
 --------------------------------------------------------------------------------

     Date and time (Linux)  : Thu May 29 18:04:42 2025
     Host name              : xm009                                   

 * Work memory size             :   131072000 = 1000.00 megabytes.

 * Directories for basis set searches:
   1) /gpfs/projects/rjh/adrian/summer2025/beta_projects/raw_data/NLO/dalton/hf/n13/dipole
   2) /gpfs/projects/rjh/adrian/dalton/build/basis


Compilation information
-----------------------

 Who compiled             | ahurtado
 Host                     | milan2
 System                   | Linux-5.14.0-427.42.1.el9_4.x86_64
 CMake generator          | Unix Makefiles
 Processor                | x86_64
 64-bit integers          | OFF
 MPI                      | ON
 Fortran compiler         | /gpfs/software/openmpi/milan/gcc13.2/4.1.6/bin/mpi
                          | f90
 Fortran compiler version | GNU Fortran (GCC) 13.2.0
 C compiler               | /gpfs/software/openmpi/milan/gcc13.2/4.1.6/bin/mpi
                          | cc
 C compiler version       | gcc (GCC) 13.2.0
 C++ compiler             | /gpfs/software/openmpi/milan/gcc13.2/4.1.6/bin/mpi
                          | cxx
 C++ compiler version     | unknown
 BLAS                     | /gpfs/software/intel/oneAPI/2024_2/mkl/2024.2/lib/
                          | intel64/libmkl_gf_lp64.so;/gpfs/software/intel/one
                          | API/2024_2/mkl/2024.2/lib/intel64/libmkl_sequentia
                          | l.so;/gpfs/software/intel/oneAPI/2024_2/mkl/2024.2
                          | /lib/intel64/libmkl_core.so;/usr/lib64/libpthread.
                          | a;/usr/lib64/libm.so
 LAPACK                   | /gpfs/software/intel/oneAPI/2024_2/mkl/2024.2/lib/
                          | intel64/libmkl_lapack95_lp64.a;/gpfs/software/inte
                          | l/oneAPI/2024_2/mkl/2024.2/lib/intel64/libmkl_gf_l
                          | p64.so
 Static linking           | OFF
 Last Git revision        | 66052b3af5ea7225e31178bf9a8b031913c72190
 Git branch               | (HEAD detached at Dalton2020.0)
 Configuration time       | 2025-04-10 16:02:31.569498

 * MPI parallel run using 576 processes.


   Content of the .dal input file
 ----------------------------------

**DALTON INPUT
.RUN RESPONSE
.DIRECT
**WAVE FUNCTIONS
.HF
**PROPERTIES
**RESPONSE
*QUADRA
.DIPLEN
.FREQUENCIES
2
0.0 0.0157
**END OF DALTON INPUT


   Content of the .mol file
 ----------------------------

BASIS
d-aug-cc-pVDZ
blah
blah
Atomtype=4 Angstrom Charge=0 Nosymmetry
Charge=6 Atoms=26
C_a -1.7583020021988636 -1.0203010023650265 0.0
C_b -0.4366050026429676 -0.6337210000257919 0.0
C_c 0.0 0.7351749977332912 0.0
C_d 1.3230230012268485 1.1180229989613641 0.0
C_e 1.7644539994874566 2.485270001155418 0.0
C_f 3.0888209997021927 2.863549001678212 0.0
C_g 3.5364370000340233 4.228928997879985 0.0
C_h 4.862381001254277 4.6009619980744825 0.0
C_i 5.318678000265757 5.9639239983886805 0.0
C_j 6.646634002034016 6.326845000940754 0.0
C_k 7.1159720018910715 7.686323999188499 0.0
C_l 8.446706998948253 8.034876999079117 0.0
C_m 8.937708000363315 9.388409998142839 0.0
C_n 10.273052998776057 9.710211999929031 0.0
C_o 10.804856997493873 11.049894002466123 0.0
C_p 12.151374001053597 11.300641999023139 0.0
C_q -8.70121400052949 -8.127067998427126 0.0
C_r -7.3953789979033004 -7.711870002574732 0.0
C_s -6.988771998270566 -6.328530001723197 0.0
C_t -5.6752670006092565 -5.925904002246334 0.0
C_u -5.255487002167518 -4.549206000905155 0.0
C_v -3.9377879999394994 -4.15421500197447 0.0
C_w -3.5106020023894984 -2.781228998845891 0.0
C_x -2.190510002605337 -2.3909570011926213 0.0
C_y -10.357511999395172 -9.950730000858867 0.0
C_z -9.073369002529908 -9.525026001129755 0.0
Charge=7 Atoms=2
N_a 12.743751999600235 12.534732002110225 0.0
N_b -10.679787000939353 -11.373654002265976 0.0
Charge=8 Atoms=2
O_a -11.886295001905696 -11.646209000083564 0.0
O_b -9.758822001538523 -12.193259001707236 0.0
Charge=1 Atoms=28
H_a -2.5340560018134046 -0.24059700179561624 0.0
H_b 0.33803699985638774 -1.4148860006643689 0.0
H_c -0.7732929974950549 1.5173750002029012 0.0
H_d 2.095124000596009 0.33428100055872206 0.0
H_e 0.9938920009083159 3.2701870005119478 0.0
H_f 3.8578410023483016 2.0766910014800333 0.0
H_g 2.769390997720421 5.017283998072973 0.0
H_h 5.627201998609036 3.8098829999800783 0.0
H_i 4.556570999363134 6.757031999494869 0.0
H_j 7.405249999710761 5.529587001644696 0.0
H_k 6.361358002121917 8.486479000291457 0.0
H_l 9.195025001726245 7.22752000197438 0.0
H_m 8.196295998314309 10.200475000222552 0.0
H_n 11.000552000604657 8.88356500121564 0.0
H_o 10.099687998638469 11.892268999855936 0.0
H_p 12.855938002187587 10.459505001134142 0.0
H_q -9.50211899920136 -7.3752920024976545 0.0
H_r -6.602321998896677 -8.47388900130722 0.0
H_s -7.778012999867379 -5.5631559983079715 0.0
H_t -4.889834000554602 -6.696097000264702 0.0
H_u -6.037967997735994 -3.776555001202085 0.0
H_v -3.157412997375187 -4.929573002406951 0.0
H_w -4.289116999976026 -2.0043860001577403 0.0
H_x -1.413337998569996 -3.169558000659427 0.0
H_y -11.246298002495534 -9.316888999317012 0.0
H_z -8.28369200124568 -10.285983999554848 0.0
H_{ 12.185428999358924 13.377295000287672 0.0
H_| 13.747297002472301 12.629961997386074 0.0


       *******************************************************************
       *********** Output from DALTON general input processing ***********
       *******************************************************************

 --------------------------------------------------------------------------------
   Overall default print level:    0
   Print level for DALTON.STAT:    1

    Parallel calculation using MPI
    AO-direct calculation (in sections where implemented)
    HERMIT 1- and 2-electron integral sections will be executed
    "Old" integral transformation used (limited to max 255 basis functions)
    Wave function sections will be executed (SIRIUS module)
    Dynamic molecular response properties section will be executed (RESPONSE module)
 --------------------------------------------------------------------------------


   ****************************************************************************
   *************** Output of molecule and basis set information ***************
   ****************************************************************************


    The two title cards from your ".mol" input:
    ------------------------------------------------------------------------
 1: blah                                                                    
 2: blah                                                                    
    ------------------------------------------------------------------------

  Coordinates are entered in Angstrom and converted to atomic units.
          - Conversion factor : 1 bohr = 0.52917721 A

  Atomic type no.    1
  --------------------
  Nuclear charge:   6.00000
  Number of symmetry independent centers:   26
  Number of basis sets to read;    2
  Basis set file used for this atomic type with Z =   6 :
     "/gpfs/projects/rjh/adrian/dalton/build/basis/aug-cc-pVDZ"

  Atomic type no.    2
  --------------------
  Nuclear charge:   7.00000
  Number of symmetry independent centers:    2
  Number of basis sets to read;    2
  Basis set file used for this atomic type with Z =   7 :
     "/gpfs/projects/rjh/adrian/dalton/build/basis/aug-cc-pVDZ"

  Atomic type no.    3
  --------------------
  Nuclear charge:   8.00000
  Number of symmetry independent centers:    2
  Number of basis sets to read;    2
  Basis set file used for this atomic type with Z =   8 :
     "/gpfs/projects/rjh/adrian/dalton/build/basis/aug-cc-pVDZ"

  Atomic type no.    4
  --------------------
  Nuclear charge:   1.00000
  Number of symmetry independent centers:   28
  Number of basis sets to read;    2
  Basis set file used for this atomic type with Z =   1 :
     "/gpfs/projects/rjh/adrian/dalton/build/basis/aug-cc-pVDZ"


                         SYMGRP: Point group information
                         -------------------------------

@    Point group: C1 


                                 Isotopic Masses
                                 ---------------

                           C_a        12.000000
                           C_b        12.000000
                           C_c        12.000000
                           C_d        12.000000
                           C_e        12.000000
                           C_f        12.000000
                           C_g        12.000000
                           C_h        12.000000
                           C_i        12.000000
                           C_j        12.000000
                           C_k        12.000000
                           C_l        12.000000
                           C_m        12.000000
                           C_n        12.000000
                           C_o        12.000000
                           C_p        12.000000
                           C_q        12.000000
                           C_r        12.000000
                           C_s        12.000000
                           C_t        12.000000
                           C_u        12.000000
                           C_v        12.000000
                           C_w        12.000000
                           C_x        12.000000
                           C_y        12.000000
                           C_z        12.000000
                           N_a        14.003074
                           N_b        14.003074
                           O_a        15.994915
                           O_b        15.994915
                           H_a         1.007825
                           H_b         1.007825
                           H_c         1.007825
                           H_d         1.007825
                           H_e         1.007825
                           H_f         1.007825
                           H_g         1.007825
                           H_h         1.007825
                           H_i         1.007825
                           H_j         1.007825
                           H_k         1.007825
                           H_l         1.007825
                           H_m         1.007825
                           H_n         1.007825
                           H_o         1.007825
                           H_p         1.007825
                           H_q         1.007825
                           H_r         1.007825
                           H_s         1.007825
                           H_t         1.007825
                           H_u         1.007825
                           H_v         1.007825
                           H_w         1.007825
                           H_x         1.007825
                           H_y         1.007825
                           H_z         1.007825
                           H_{         1.007825
                           H_|         1.007825

                       Total mass:   400.215078 amu
                       Natural abundance:  73.786 %

 Center-of-mass coordinates (a.u.):   -0.209225   -0.225325    0.000000
 Center-of-mass coordinates (Angs):   -0.110717   -0.119237    0.000000


  Atoms and basis sets
  --------------------

  Number of atom types :    4
  Total number of atoms:   58

  Basis set used is "d-aug-cc-pVDZ" from the basis set library.

  label    atoms   charge   prim   cont     basis
  ----------------------------------------------------------------------
  C_         26    6.0000    44    32      [11s6p3d|5s4p3d]                                   
  N_          2    7.0000    44    32      [11s6p3d|5s4p3d]                                   
  O_          2    8.0000    44    32      [11s6p3d|5s4p3d]                                   
  H_         28    1.0000    15    13      [6s3p|4s3p]                                        
  ----------------------------------------------------------------------
  total:     58  214.0000  1740  1324
  ----------------------------------------------------------------------
  Spherical harmonic basis used.

  Threshold for neglecting AO integrals:  1.00D-12

  Max    interatomic separation is   35.3046 Angstrom (   66.7160 Bohr)
  between atoms   58 and   29, "H_|   " and "O_a   ".

  Min HX interatomic separation is    1.0081 Angstrom (    1.9049 Bohr)

  Min YX interatomic separation is    1.2329 Angstrom (    2.3298 Bohr)


  Bond distances (Angstrom):
  --------------------------

                  atom 1     atom 2       distance
                  ------     ------       --------
  bond distance:  C_b        C_a          1.377072
  bond distance:  C_c        C_b          1.436837
  bond distance:  C_d        C_c          1.377303
  bond distance:  C_e        C_d          1.436741
  bond distance:  C_f        C_e          1.377332
  bond distance:  C_g        C_f          1.436879
  bond distance:  C_h        C_g          1.377148
  bond distance:  C_i        C_h          1.437314
  bond distance:  C_j        C_i          1.376655
  bond distance:  C_k        C_j          1.438215
  bond distance:  C_l        C_k          1.375625
  bond distance:  C_m        C_l          1.439838
  bond distance:  C_n        C_m          1.373573
  bond distance:  C_o        C_n          1.441376
  bond distance:  C_p        C_o          1.369665
  bond distance:  C_r        C_q          1.370253
  bond distance:  C_s        C_r          1.441859
  bond distance:  C_t        C_s          1.373828
  bond distance:  C_u        C_t          1.439275
  bond distance:  C_v        C_u          1.375627
  bond distance:  C_w        C_v          1.437908
  bond distance:  C_x        C_a          1.437185
  bond distance:  C_x        C_w          1.376574
  bond distance:  C_z        C_q          1.446646
  bond distance:  C_z        C_y          1.352866
  bond distance:  N_a        C_p          1.368901
  bond distance:  N_b        C_y          1.458963
  bond distance:  O_a        N_b          1.236911
  bond distance:  O_b        N_b          1.232854
  bond distance:  H_a        C_a          1.099878
  bond distance:  H_b        C_b          1.100131
  bond distance:  H_c        C_c          1.099918
  bond distance:  H_d        C_d          1.100178
  bond distance:  H_e        C_e          1.099937
  bond distance:  H_f        C_f          1.100244
  bond distance:  H_g        C_g          1.099938
  bond distance:  H_h        C_h          1.100344
  bond distance:  H_i        C_i          1.099922
  bond distance:  H_j        C_j          1.100508
  bond distance:  H_k        C_k          1.099859
  bond distance:  H_l        C_l          1.100820
  bond distance:  H_m        C_m          1.099610
  bond distance:  H_n        C_n          1.101181
  bond distance:  H_o        C_o          1.098571
  bond distance:  H_p        C_p          1.097234
  bond distance:  H_q        C_q          1.098461
  bond distance:  H_r        C_r          1.099824
  bond distance:  H_s        C_s          1.099408
  bond distance:  H_t        C_t          1.100046
  bond distance:  H_u        C_u          1.099666
  bond distance:  H_v        C_v          1.100075
  bond distance:  H_w        C_w          1.099805
  bond distance:  H_x        C_x          1.100098
  bond distance:  H_y        C_y          1.091648
  bond distance:  H_z        C_z          1.096653
  bond distance:  H_{        N_a          1.010761
  bond distance:  H_|        N_a          1.008053


  Bond angles (degrees):
  ----------------------

                  atom 1     atom 2     atom 3         angle
                  ------     ------     ------         -----
  bond angle:     C_b        C_a        C_x          123.805
  bond angle:     C_b        C_a        H_a          118.551
  bond angle:     C_x        C_a        H_a          117.644
  bond angle:     C_a        C_b        C_c          123.993
  bond angle:     C_a        C_b        H_b          118.456
  bond angle:     C_c        C_b        H_b          117.550
  bond angle:     C_b        C_c        C_d          123.829
  bond angle:     C_b        C_c        H_c          117.638
  bond angle:     C_d        C_c        H_c          118.533
  bond angle:     C_c        C_d        C_e          124.032
  bond angle:     C_c        C_d        H_d          118.432
  bond angle:     C_e        C_d        H_d          117.535
  bond angle:     C_d        C_e        C_f          123.834
  bond angle:     C_d        C_e        H_e          117.635
  bond angle:     C_f        C_e        H_e          118.530
  bond angle:     C_e        C_f        C_g          124.092
  bond angle:     C_e        C_f        H_f          118.402
  bond angle:     C_g        C_f        H_f          117.506
  bond angle:     C_f        C_g        C_h          123.824
  bond angle:     C_f        C_g        H_g          117.634
  bond angle:     C_h        C_g        H_g          118.542
  bond angle:     C_g        C_h        C_i          124.183
  bond angle:     C_g        C_h        H_h          118.360
  bond angle:     C_i        C_h        H_h          117.457
  bond angle:     C_h        C_i        C_j          123.795
  bond angle:     C_h        C_i        H_i          117.632
  bond angle:     C_j        C_i        H_i          118.573
  bond angle:     C_i        C_j        C_k          124.332
  bond angle:     C_i        C_j        H_j          118.292
  bond angle:     C_k        C_j        H_j          117.376
  bond angle:     C_j        C_k        C_l          123.724
  bond angle:     C_j        C_k        H_k          117.631
  bond angle:     C_l        C_k        H_k          118.645
  bond angle:     C_k        C_l        C_m          124.616
  bond angle:     C_k        C_l        H_l          118.149
  bond angle:     C_m        C_l        H_l          117.235
  bond angle:     C_l        C_m        C_n          123.488
  bond angle:     C_l        C_m        H_m          117.666
  bond angle:     C_n        C_m        H_m          118.847
  bond angle:     C_m        C_n        C_o          125.200
  bond angle:     C_m        C_n        H_n          117.800
  bond angle:     C_o        C_n        H_n          116.999
  bond angle:     C_n        C_o        C_p          122.200
  bond angle:     C_n        C_o        H_o          118.415
  bond angle:     C_p        C_o        H_o          119.385
  bond angle:     C_o        C_p        N_a          126.190
  bond angle:     C_o        C_p        H_p          119.402
  bond angle:     N_a        C_p        H_p          114.408
  bond angle:     C_r        C_q        C_z          122.546
  bond angle:     C_r        C_q        H_q          119.174
  bond angle:     C_z        C_q        H_q          118.281
  bond angle:     C_q        C_r        C_s          124.018
  bond angle:     C_q        C_r        H_r          118.505
  bond angle:     C_s        C_r        H_r          117.477
  bond angle:     C_r        C_s        C_t          123.421
  bond angle:     C_r        C_s        H_s          117.741
  bond angle:     C_t        C_s        H_s          118.838
  bond angle:     C_s        C_t        C_u          123.999
  bond angle:     C_s        C_t        H_t          118.520
  bond angle:     C_u        C_t        H_t          117.481
  bond angle:     C_t        C_u        C_v          123.644
  bond angle:     C_t        C_u        H_u          117.680
  bond angle:     C_v        C_u        H_u          118.676
  bond angle:     C_u        C_v        C_w          123.969
  bond angle:     C_u        C_v        H_v          118.498
  bond angle:     C_w        C_v        H_v          117.532
  bond angle:     C_v        C_w        C_x          123.753
  bond angle:     C_v        C_w        H_w          117.656
  bond angle:     C_x        C_w        H_w          118.592
  bond angle:     C_a        C_x        C_w          123.971
  bond angle:     C_a        C_x        H_x          117.551
  bond angle:     C_w        C_x        H_x          118.478
  bond angle:     C_z        C_y        N_b          121.102
  bond angle:     C_z        C_y        H_y          126.165
  bond angle:     N_b        C_y        H_y          112.733
  bond angle:     C_q        C_z        C_y          123.248
  bond angle:     C_q        C_z        H_z          119.032
  bond angle:     C_y        C_z        H_z          117.720
  bond angle:     C_p        N_a        H_{          120.828
  bond angle:     C_p        N_a        H_|          121.062
  bond angle:     H_{        N_a        H_|          118.110
  bond angle:     C_y        N_b        O_a          115.491
  bond angle:     C_y        N_b        O_b          118.906
  bond angle:     O_a        N_b        O_b          125.603




 Principal moments of inertia (u*A**2) and principal axes
 --------------------------------------------------------

   IA     148.143465          0.703374    0.710820    0.000000
   IB   46570.622979          0.710820   -0.703374    0.000000
   IC   46718.766444          0.000000    0.000000    1.000000


 Rotational constants
 --------------------

@    The molecule is planar.

               A                   B                   C

           3411.4161             10.8519             10.8175 MHz
            0.113793            0.000362            0.000361 cm-1


@  Nuclear repulsion energy : 1902.014739146232 Hartree


                     .---------------------------------------.
                     | Starting in Integral Section (HERMIT) |
                     `---------------------------------------'



 ***************************************************************************************
 ****************** Output from **INTEGRALS input processing (HERMIT) ******************
 ***************************************************************************************


 - Using defaults, no **INTEGRALS input found

 Default print level:        1

 Calculation of one-electron Hamiltonian integrals.

 Center of mass  (bohr):     -0.209224920491     -0.225324994836      0.000000000000
 Operator center (bohr):      0.000000000000      0.000000000000      0.000000000000
 Gauge origin    (bohr):      0.000000000000      0.000000000000      0.000000000000
 Dipole origin   (bohr):      0.000000000000      0.000000000000      0.000000000000


     ************************************************************************
     ************************** Output from HERINT **************************
     ************************************************************************



                      Nuclear contribution to dipole moments
                      --------------------------------------

                 au               Debye          C m (/(10**-30)

      x     -0.00000204        -0.00000519        -0.00001730
      y      0.00000730         0.00001855         0.00006189
      z      0.00000000         0.00000000         0.00000000


  Time used in ONEDRV     is       4.13 seconds
  Time used in HUCKEL     is       0.86 seconds
  Time used in OVERLAP    is       0.46 seconds
  Time used in POPOVLP    is       0.90 seconds
  Time used in R2         is       0.55 seconds
  Time used in R4         is       0.64 seconds
  Time used in DIPLEN     is       0.61 seconds
  Time used in QUADRUP    is       1.15 seconds
  Time used in KINENE     is       0.80 seconds
  Time used in GABGEN     is       3.45 seconds
  Total CPU  time used in HERMIT:  13.54 seconds
  Total wall time used in HERMIT:  13.67 seconds


                        .----------------------------------.
                        | End of Integral Section (HERMIT) |
                        `----------------------------------'



                   .--------------------------------------------.
                   | Starting in Wave Function Section (SIRIUS) |
                   `--------------------------------------------'



@ Primary orbitals are deleted during canonical orthonormalization
@   because of detected numerical linear dependence or too large coefficients.
@ Eigenvalue threshold for num. lin. dep. =  1.00D-06

@ 105 MO components are deleted in symmetry    1
 Overlap eigenvalues of the deleted orbitals:
  9.63D-07  9.19D-07  8.77D-07  8.57D-07  8.05D-07
  7.64D-07  7.30D-07  7.07D-07  6.73D-07  5.95D-07
  5.93D-07  5.77D-07  5.40D-07  5.01D-07  4.78D-07
  4.72D-07  4.60D-07  4.23D-07  4.15D-07  4.14D-07
  3.40D-07  3.15D-07  2.94D-07  2.67D-07  2.61D-07
  2.52D-07  2.46D-07  2.39D-07  2.09D-07  2.02D-07
  1.92D-07  1.83D-07  1.76D-07  1.73D-07  1.62D-07
  1.47D-07  1.41D-07  1.37D-07  1.30D-07  1.22D-07
  1.06D-07  1.02D-07  9.28D-08  9.19D-08  8.88D-08
  8.39D-08  6.72D-08  6.29D-08  5.64D-08  5.11D-08
  4.83D-08  4.30D-08  4.10D-08  3.88D-08  3.75D-08
  3.12D-08  2.93D-08  2.85D-08  2.72D-08  2.59D-08
  2.28D-08  2.20D-08  2.02D-08  1.96D-08  1.84D-08
  1.70D-08  1.55D-08  1.54D-08  1.45D-08  1.24D-08
  1.11D-08  1.05D-08  9.99D-09  9.31D-09  9.16D-09
  8.66D-09  8.33D-09  7.89D-09  6.96D-09  6.47D-09
  5.77D-09  5.39D-09  5.36D-09  4.59D-09  4.01D-09
  3.34D-09  3.04D-09  2.70D-09  2.65D-09  2.57D-09
  2.52D-09  2.13D-09  1.98D-09  1.51D-09  1.49D-09
  1.03D-09  9.60D-10  7.15D-10  5.49D-10  3.73D-10
  3.61D-10  9.55D-11  8.74D-11  3.29D-11  2.50D-11

 Max MO coeff. of last deleted MO & limit:  1.88D+02  1.00D+03

WARNING: Orbitals have been deleted because of numerical
   linear dependence although not requested in input.

 *** Output from Huckel module :

     Using EWMO model:          T
     Using EHT  model:          F
     Number of Huckel orbitals each symmetry:  178

 EWMO - Energy Weighted Maximum Overlap - is a Huckel type method,
        which normally is better than Extended Huckel Theory.
 Reference: Linderberg and Ohrn, Propagators in Quantum Chemistry (Wiley, 1973)

 Huckel EWMO eigenvalues for symmetry :  1
          -20.684753     -20.683497     -15.677080     -15.674961     -11.359404
          -11.359365     -11.359184     -11.359064     -11.358855     -11.358810
          -11.358234     -11.357311     -11.356156     -11.354849     -11.353477
          -11.352135     -11.350960     -11.348614     -11.347868     -11.347103
          -11.346452     -11.345949     -11.345603     -11.345492     -11.345423
          -11.345399     -11.345297     -11.345276     -11.345189     -11.345186
           -1.964018      -1.792796      -1.789984      -1.782779      -1.768251
           -1.743648      -1.706915      -1.657309      -1.595577      -1.523908
           -1.453302      -1.434018      -1.357003      -1.270982      -1.211334
           -1.190833      -1.185339      -1.157595      -1.118868      -1.097806
           -1.068382      -1.014478      -1.014053      -0.957876      -0.940668
           -0.900946      -0.875538      -0.852017      -0.847595      -0.824641
           -0.813952      -0.783946      -0.768225      -0.749488      -0.743965
           -0.739485      -0.712990      -0.694160      -0.677906      -0.677145
           -0.657331      -0.641999      -0.638160      -0.621252      -0.601881
           -0.597783      -0.589179      -0.585328      -0.560978      -0.556184
           -0.551679      -0.537864      -0.529388      -0.515984      -0.512235
           -0.510069      -0.497873      -0.494645      -0.491708      -0.490432
           -0.485875      -0.484707      -0.478950      -0.478471      -0.477421
           -0.476147      -0.474461      -0.473900      -0.446470      -0.441362
           -0.417824      -0.408465      -0.393259      -0.379179      -0.374507
           -0.362710      -0.353825      -0.335893      -0.305861      -0.285770
           -0.267781      -0.252161      -0.238848      -0.229131      -0.227701
           -0.218538      -0.211157      -0.205347      -0.200907      -0.200900
           -0.197656      -0.195443      -0.194159      -0.190593      -0.166745
           -0.142716      -0.139014      -0.135399      -0.132960      -0.131698
           -0.131513      -0.130879      -0.130156      -0.129971      -0.129786
           -0.129654      -0.129161      -0.128919      -0.128447      -0.127890
           -0.127345      -0.127221      -0.126533      -0.126340      -0.126260
           -0.125804      -0.125091      -0.124899      -0.124231      -0.123907
           -0.123616      -0.123183      -0.112560      -0.112184      -0.108954
           -0.107865      -0.104736      -0.103015      -0.100749      -0.098365
           -0.096598      -0.094649      -0.093050      -0.091766      -0.090072
           -0.089493      -0.087921      -0.087538      -0.086389      -0.086007
           -0.085117      -0.085055      -0.083916      -0.082759      -0.081627
           -0.080582      -0.079757      -0.079336

 **********************************************************************
 *SIRIUS* a direct, restricted step, second order MCSCF program       *
 **********************************************************************

 
     Date and time (Linux)  : Thu May 29 18:06:59 2025
     Host name              : xm009                                   

 Title lines from ".mol" input file:
     blah                                                                    
     blah                                                                    

 Print level on unit LUPRI =   2 is   0
 Print level on unit LUW4  =   2 is   5

@    Restricted, closed shell Hartree-Fock calculation.

@    Time-dependent Hartree-Fock calculation (random phase approximation).
 Fock matrices are calculated directly and in parallel without use of integrals on disk.

 Initial molecular orbitals are obtained according to
 ".MOSTART EWMO  " input option

     Wave function specification
     ============================
@    Wave function type        --- HF ---
@    Number of closed shell electrons         214
@    Number of electrons in active shells       0
@    Total charge of the molecule               0

@    Spin multiplicity and 2 M_S                1         0
@    Total number of symmetries                 1 (point group: C1 )
@    Reference state symmetry                   1 (irrep name : A  )

     Orbital specifications
     ======================
@    Abelian symmetry species          All |    1
@                                          |  A  
                                       --- |  ---
@    Occupied SCF orbitals             107 |  107
@    Secondary orbitals               1112 | 1112
@    Total number of orbitals         1219 | 1219
@    Number of basis functions        1324 | 1324

     Optimization information
     ========================
@    Number of configurations                 1
@    Number of orbital rotations         118984
     ------------------------------------------
@    Total number of variables           118985

     Maximum number of Fock   iterations      0
     Maximum number of DIIS   iterations     60
     Maximum number of QC-SCF iterations     60
     Threshold for SCF convergence     1.00D-05

    INFORMATION: Switched to "new" integral transformation (from 1988 ;-) )
    because more than 255 basis functions.


 ***********************************************
 ***** DIIS acceleration of SCF iterations *****
 ***********************************************

 C1-DIIS algorithm; max error vectors =    8

 Iter      Total energy        Error norm    Delta(E)  DIIS dim.
 -----------------------------------------------------------------------------
   1  Screening settings (-IFTHRS, JTDIIS, DIFDEN, times)  -10    1    T  2.45D+01  2.46D+01
@  1    -1254.78122293        7.85219D+00   -1.25D+03    1
      Virial theorem: -V/T =      2.012768
@    MULPOP   C_a     0.37; C_b     0.50; C_c     0.45; C_d     0.43; C_e     0.38; C_f     0.48; C_g     0.38; C_h     0.41; C_i     0.33; C_j     0.55; 
@             C_k     0.39; C_l     0.63; C_m     0.38; C_n     0.76; C_o     0.07; C_p     1.01; C_q     0.55; C_r     0.52; C_s     0.54; C_t     0.53; 
@             C_u     0.33; C_v     0.52; C_w     0.46; C_x     0.43; C_y     0.94; C_z     0.32; N_a    -0.33; N_b     0.77; O_a    -1.16; O_b    -1.22; 
@    MULPOP    dipole moment & components:     36.7463;       24.5560     27.3366      0.0000
   1  Level shift: doubly occupied orbital energies shifted by -2.00D-01
 -----------------------------------------------------------------------------
   2  Screening settings (-IFTHRS, JTDIIS, DIFDEN, times)  -10    2    T  2.08D+01  2.09D+01
@  2    -1258.75532633        2.92205D+00   -3.97D+00    2
      Virial theorem: -V/T =      2.000932
@    MULPOP   C_a     0.60; C_b     0.76; C_c     0.92; C_d     0.46; C_e     0.60; C_f     0.87; C_g     0.79; C_h     0.72; C_i     0.61; C_j     0.93; 
@             C_k     0.80; C_l     1.12; C_m     0.46; C_n     0.73; C_o     0.92; C_p    -0.42; C_q     0.76; C_r     0.58; C_s     1.05; C_t     0.77; 
@             C_u     0.77; C_v     0.60; C_w     0.95; C_x     0.68; C_y     0.28; C_z     0.01; N_a     0.26; N_b     0.54; O_a    -0.42; O_b    -0.67; 
@    MULPOP    dipole moment & components:     11.8776;        5.5048     10.5250      0.0000
   2  Level shift: doubly occupied orbital energies shifted by -1.00D-01
 -----------------------------------------------------------------------------
   3  Screening settings (-IFTHRS, JTDIIS, DIFDEN, times)  -10    3    T  2.04D+01  2.05D+01
@  3    -1259.25087061        1.02834D+00   -4.96D-01    3
      Virial theorem: -V/T =      2.001335
@    MULPOP   C_a     0.61; C_b     0.73; C_c     0.93; C_d     0.46; C_e     0.59; C_f     0.82; C_g     0.77; C_h     0.70; C_i     0.58; C_j     0.91; 
@             C_k     0.80; C_l     1.14; C_m     0.20; C_n     0.53; C_o     0.78; C_p    -0.39; C_q     0.66; C_r     0.39; C_s     1.06; C_t     0.76; 
@             C_u     0.84; C_v     0.52; C_w     0.92; C_x     0.66; C_y     0.56; C_z    -0.13; N_a     0.18; N_b     0.63; O_a    -0.74; O_b    -0.80; 
@    MULPOP    dipole moment & components:      9.9792;        3.4580      9.3609      0.0000
   3  Level shift: doubly occupied orbital energies shifted by -5.00D-02
 -----------------------------------------------------------------------------
   4  Screening settings (-IFTHRS, JTDIIS, DIFDEN, times)  -10    4    T  2.02D+01  2.03D+01
@  4    -1259.32658922        3.15171D-01   -7.57D-02    4
      Virial theorem: -V/T =      2.002723
@    MULPOP   C_a     0.61; C_b     0.73; C_c     0.95; C_d     0.47; C_e     0.60; C_f     0.81; C_g     0.74; C_h     0.68; C_i     0.58; C_j     0.88; 
@             C_k     0.81; C_l     1.08; C_m     0.11; C_n     0.37; C_o     0.75; C_p    -0.43; C_q     0.59; C_r     0.32; C_s     1.07; C_t     0.77; 
@             C_u     0.84; C_v     0.52; C_w     0.90; C_x     0.63; C_y     0.42; C_z    -0.19; N_a     0.18; N_b     0.41; O_a    -0.58; O_b    -0.75; 
@    MULPOP    dipole moment & components:      8.6992;        2.0609      8.4516      0.0000
   4  Level shift: doubly occupied orbital energies shifted by -2.50D-02
 -----------------------------------------------------------------------------
   5  Screening settings (-IFTHRS, JTDIIS, DIFDEN, times)  -10    5    T  2.04D+01  2.05D+01
@  5    -1259.34267322        1.33865D-01   -1.61D-02    5
      Virial theorem: -V/T =      2.002182
@    MULPOP   C_a     0.65; C_b     0.78; C_c     0.99; C_d     0.52; C_e     0.65; C_f     0.82; C_g     0.74; C_h     0.67; C_i     0.60; C_j     0.91; 
@             C_k     0.83; C_l     1.10; C_m     0.02; C_n     0.21; C_o     0.69; C_p    -0.51; C_q     0.50; C_r     0.17; C_s     1.15; C_t     0.78; 
@             C_u     0.87; C_v     0.53; C_w     0.91; C_x     0.62; C_y     0.39; C_z    -0.33; N_a     0.17; N_b     0.42; O_a    -0.61; O_b    -0.72; 
@    MULPOP    dipole moment & components:      7.5117;        0.5081      7.4945      0.0000
   5  Level shift: doubly occupied orbital energies shifted by -1.25D-02
 -----------------------------------------------------------------------------
   6  Screening settings (-IFTHRS, JTDIIS, DIFDEN, times)  -14    6    F  2.28D+01  2.29D+01
@  6    -1259.34807641        1.63129D-01   -5.40D-03    6

Info: SCF gradient has been lower than now,
      therefore  1 old iterations are removed from DIIS.
      Virial theorem: -V/T =      2.002057
@    MULPOP   C_a     0.80; C_b     0.89; C_c     1.19; C_d     0.83; C_e     0.85; C_f     0.85; C_g     0.75; C_h     0.79; C_i     0.73; C_j     0.99; 
@             C_k     1.01; C_l     1.37; C_m    -0.28; C_n    -0.45; C_o     0.29; C_p    -0.63; C_q     0.01; C_r    -0.24; C_s     1.55; C_t     1.04; 
@             C_u     0.97; C_v     0.60; C_w     0.96; C_x     0.71; C_y     0.11; C_z    -0.66; N_a     0.16; N_b     0.40; O_a    -0.59; O_b    -0.73; 
@    MULPOP    dipole moment & components:      6.6373;       -2.2760      6.2348      0.0000
   6  Level shift: doubly occupied orbital energies shifted by -1.25D-02
 -----------------------------------------------------------------------------
   7  Screening settings (-IFTHRS, JTDIIS, DIFDEN, times)  -14    6    T  2.34D+01  2.35D+01
@  7    -14906.8025032        7.88703D+03   -1.36D+04    6
      Virial theorem: -V/T =     12.923851
@    MULPOP   C_a     0.92; C_b     0.93; C_c     0.96; C_d     0.55; C_e     0.87; C_f     0.95; C_g     0.73; C_h     0.47; C_i     0.70; C_j     0.87; 
@             C_k     0.76; C_l     1.32; C_m     0.30; C_n     0.06; C_o     0.53; C_p    -0.36; C_q     0.67; C_r     0.19; C_s     1.18; C_t     0.66; 
@             C_u     0.56; C_v     0.51; C_w     0.89; C_x     0.44; C_y     0.51; C_z    -0.83; N_a     0.42; N_b     0.49; O_a    -0.57; O_b    -0.67; 
@    MULPOP    dipole moment & components:     24.4063;       13.0781     20.6066      0.0000
   7  Level shift: doubly occupied orbital energies shifted by -1.25D-02
 -----------------------------------------------------------------------------
   8  Screening settings (-IFTHRS, JTDIIS, DIFDEN, times)  -10    7    F  2.28D+01  2.29D+01
@  8    -14906.8031019        7.88703D+03   -5.99D-04    7
      Virial theorem: -V/T =     12.923852
@    MULPOP   C_a     0.92; C_b     0.93; C_c     0.96; C_d     0.55; C_e     0.87; C_f     0.95; C_g     0.73; C_h     0.47; C_i     0.70; C_j     0.87; 
@             C_k     0.76; C_l     1.32; C_m     0.30; C_n     0.06; C_o     0.53; C_p    -0.36; C_q     0.67; C_r     0.19; C_s     1.18; C_t     0.66; 
@             C_u     0.56; C_v     0.51; C_w     0.89; C_x     0.44; C_y     0.51; C_z    -0.83; N_a     0.42; N_b     0.49; O_a    -0.57; O_b    -0.67; 
@    MULPOP    dipole moment & components:     24.4063;       13.0781     20.6066      0.0000
   8  Level shift: doubly occupied orbital energies shifted by -1.25D-02
 -----------------------------------------------------------------------------
   9  Screening settings (-IFTHRS, JTDIIS, DIFDEN, times)  -10    8    F  2.28D+01  2.29D+01
@  9    -14906.8031235        7.88703D+03   -2.16D-05    8
      Virial theorem: -V/T =     12.923852
@    MULPOP   C_a     0.92; C_b     0.93; C_c     0.96; C_d     0.55; C_e     0.87; C_f     0.95; C_g     0.73; C_h     0.47; C_i     0.70; C_j     0.87; 
@             C_k     0.76; C_l     1.32; C_m     0.30; C_n     0.06; C_o     0.53; C_p    -0.36; C_q     0.67; C_r     0.19; C_s     1.18; C_t     0.66; 
@             C_u     0.56; C_v     0.51; C_w     0.89; C_x     0.44; C_y     0.51; C_z    -0.83; N_a     0.42; N_b     0.49; O_a    -0.57; O_b    -0.67; 
@    MULPOP    dipole moment & components:     24.4063;       13.0781     20.6066      0.0000
   9  Level shift: doubly occupied orbital energies shifted by -1.25D-02
 -----------------------------------------------------------------------------
  10  Screening settings (-IFTHRS, JTDIIS, DIFDEN, times)  -10    9    F  2.28D+01  2.29D+01
@ 10    -14906.8031371        7.88703D+03   -1.37D-05    8
      Virial theorem: -V/T =     12.923852
@    MULPOP   C_a     0.92; C_b     0.93; C_c     0.96; C_d     0.55; C_e     0.87; C_f     0.95; C_g     0.73; C_h     0.47; C_i     0.70; C_j     0.87; 
@             C_k     0.76; C_l     1.32; C_m     0.30; C_n     0.06; C_o     0.53; C_p    -0.36; C_q     0.67; C_r     0.19; C_s     1.18; C_t     0.66; 
@             C_u     0.56; C_v     0.51; C_w     0.89; C_x     0.44; C_y     0.51; C_z    -0.83; N_a     0.42; N_b     0.49; O_a    -0.57; O_b    -0.67; 
@    MULPOP    dipole moment & components:     24.4063;       13.0781     20.6066      0.0000
  10  Level shift: doubly occupied orbital energies shifted by -1.25D-02
 -----------------------------------------------------------------------------
  11  Screening settings (-IFTHRS, JTDIIS, DIFDEN, times)  -10   10    F  2.28D+01  2.29D+01
@ 11    -14991.1366263        7.71288D+03   -8.43D+01    8
      Virial theorem: -V/T =     12.991009
@    MULPOP   C_a     0.89; C_b     0.94; C_c     0.90; C_d     0.61; C_e     0.84; C_f     0.92; C_g     0.62; C_h     0.37; C_i     0.64; C_j     0.89; 
@             C_k     0.81; C_l     1.31; C_m     0.35; C_n     0.13; C_o     0.61; C_p    -0.35; C_q     0.73; C_r     0.25; C_s     1.13; C_t     0.62; 
@             C_u     0.46; C_v     0.44; C_w     0.86; C_x     0.45; C_y     0.61; C_z    -0.79; N_a     0.41; N_b     0.50; O_a    -0.56; O_b    -0.68; 
@    MULPOP    dipole moment & components:     23.4497;       12.7016     19.7118      0.0000
  11  Level shift: doubly occupied orbital energies shifted by -1.25D-02
 -----------------------------------------------------------------------------
  12  Screening settings (-IFTHRS, JTDIIS, DIFDEN, times)  -10   11    F  2.28D+01  2.29D+01
@ 12    -14991.2806703        7.71273D+03   -1.44D-01    8
      Virial theorem: -V/T =     12.991123
@    MULPOP   C_a     0.89; C_b     0.93; C_c     0.91; C_d     0.61; C_e     0.84; C_f     0.92; C_g     0.62; C_h     0.38; C_i     0.64; C_j     0.89; 
@             C_k     0.81; C_l     1.32; C_m     0.35; C_n     0.13; C_o     0.61; C_p    -0.36; C_q     0.73; C_r     0.25; C_s     1.13; C_t     0.61; 
@             C_u     0.46; C_v     0.45; C_w     0.86; C_x     0.45; C_y     0.61; C_z    -0.80; N_a     0.41; N_b     0.50; O_a    -0.56; O_b    -0.68; 
@    MULPOP    dipole moment & components:     23.4870;       12.6915     19.7627      0.0000
  12  Level shift: doubly occupied orbital energies shifted by -1.25D-02
 -----------------------------------------------------------------------------
  13  Screening settings (-IFTHRS, JTDIIS, DIFDEN, times)  -10   12    F  2.28D+01  2.29D+01
@ 13    -15017.5829525        7.65769D+03   -2.63D+01    8
      Virial theorem: -V/T =     13.012065
@    MULPOP   C_a     0.84; C_b     0.79; C_c     0.99; C_d     0.49; C_e     0.86; C_f     0.89; C_g     0.75; C_h     0.49; C_i     0.63; C_j     0.79; 
@             C_k     0.71; C_l     1.38; C_m     0.42; C_n     0.07; C_o     0.62; C_p    -0.35; C_q     0.89; C_r     0.27; C_s     1.00; C_t     0.56; 
@             C_u     0.52; C_v     0.46; C_w     0.93; C_x     0.52; C_y     0.58; C_z    -0.77; N_a     0.41; N_b     0.49; O_a    -0.57; O_b    -0.68; 
@    MULPOP    dipole moment & components:     24.2577;       12.9106     20.5366      0.0000
  13  Level shift: doubly occupied orbital energies shifted by -1.25D-02
 -----------------------------------------------------------------------------
  14  Screening settings (-IFTHRS, JTDIIS, DIFDEN, times)  -10   13    F  2.27D+01  2.29D+01
@ 14    -15220.4291224        7.27114D+03   -2.03D+02    8
      Virial theorem: -V/T =     13.173457
@    MULPOP   C_a     0.71; C_b     0.77; C_c     1.03; C_d     0.34; C_e     0.90; C_f     0.79; C_g     0.70; C_h     0.44; C_i     0.64; C_j     0.61; 
@             C_k     0.91; C_l     1.27; C_m     0.46; C_n     0.24; C_o     0.81; C_p    -0.31; C_q     0.87; C_r     0.28; C_s     0.99; C_t     0.75; 
@             C_u     0.57; C_v     0.22; C_w     1.02; C_x     0.48; C_y     0.74; C_z    -0.81; N_a     0.42; N_b     0.46; O_a    -0.56; O_b    -0.68; 
@    MULPOP    dipole moment & components:     25.5595;       13.5509     21.6716      0.0000
  14  Level shift: doubly occupied orbital energies shifted by -1.25D-02
 -----------------------------------------------------------------------------
  15  Screening settings (-IFTHRS, JTDIIS, DIFDEN, times)  -10   14    F  2.29D+01  2.30D+01
@ 15    -41202.0979095        1.57776D+04   -2.60D+04    8
      Virial theorem: -V/T =     35.373764
@    MULPOP   C_a     0.77; C_b    -0.15; C_c    -0.46; C_d     0.36; C_e    -0.02; C_f     0.20; C_g     0.51; C_h     0.36; C_i    -0.76; C_j    -0.34; 
@             C_k    -0.56; C_l    -1.09; C_m    -0.16; C_n    -1.19; C_o     0.62; C_p     1.58; C_q     0.05; C_r    -1.90; C_s    -0.61; C_t    -1.20; 
@             C_u    -1.13; C_v     0.35; C_w     0.22; C_x    -0.79; C_y    -0.11; C_z     0.55; N_a     3.47; N_b     1.57; O_a     4.63; O_b     4.91; 
@    MULPOP    dipole moment & components:    214.8643;     -139.3907   -163.5142      0.0000
  15  Level shift: doubly occupied orbital energies shifted by -1.25D-02
 -----------------------------------------------------------------------------
  16  Screening settings (-IFTHRS, JTDIIS, DIFDEN, times)  -10   15    F  2.29D+01  2.30D+01
@ 16    -53545.5944955        1.62713D+04   -1.23D+04    8
      Virial theorem: -V/T =     45.741557
@    MULPOP   C_a     0.18; C_b    -1.39; C_c     0.17; C_d    -0.53; C_e    -0.61; C_f    -0.41; C_g     1.24; C_h    -0.18; C_i    -1.86; C_j    -0.47; 
@             C_k    -0.34; C_l    -0.59; C_m    -1.37; C_n    -1.34; C_o     3.74; C_p     0.77; C_q     4.89; C_r    -3.93; C_s    -2.25; C_t    -1.76; 
@             C_u    -0.87; C_v    -0.07; C_w     0.48; C_x    -0.80; C_y    -0.75; C_z     1.30; N_a     4.07; N_b     1.21; O_a     4.40; O_b     4.28; 
@    MULPOP    dipole moment & components:    137.5338;      -92.2632   -101.9954      0.0000
  16  Level shift: doubly occupied orbital energies shifted by -1.25D-02
 -----------------------------------------------------------------------------
  17  Screening settings (-IFTHRS, JTDIIS, DIFDEN, times)  -10   16    F  2.29D+01  2.30D+01
@ 17    -53050.5829793        1.59908D+04    4.95D+02    8
      Virial theorem: -V/T =     45.339257
@    MULPOP   C_a    -0.67; C_b    -0.25; C_c     0.05; C_d    -0.99; C_e    -1.86; C_f     0.50; C_g     3.27; C_h    -2.25; C_i    -1.70; C_j     0.93; 
@             C_k    -1.74; C_l    -0.13; C_m    -2.54; C_n    -2.32; C_o     5.20; C_p     1.01; C_q     0.29; C_r    -2.31; C_s    -0.40; C_t    -0.79; 
@             C_u    -1.40; C_v     0.76; C_w     0.58; C_x    -1.37; C_y     0.40; C_z     0.67; N_a     3.69; N_b     1.63; O_a     4.53; O_b     4.58; 
@    MULPOP    dipole moment & components:    177.7623;     -118.2347   -132.7403      0.0000
  17  Level shift: doubly occupied orbital energies shifted by -1.25D-02
 -----------------------------------------------------------------------------
  18  Screening settings (-IFTHRS, JTDIIS, DIFDEN, times)  -10   17    F  2.31D+01  2.32D+01
@ 18    -53626.3886808        1.60848D+04   -5.76D+02    8
      Virial theorem: -V/T =     45.183437
@    MULPOP   C_a    -1.20; C_b    -1.06; C_c     0.05; C_d    -0.82; C_e    -1.16; C_f    -1.18; C_g    -1.15; C_h    -0.96; C_i    -1.30; C_j    -1.51; 
@             C_k    -0.46; C_l    -1.84; C_m    -1.00; C_n     0.18; C_o     1.57; C_p     1.00; C_q     0.44; C_r    -1.05; C_s    -0.55; C_t    -1.05; 
@             C_u    -0.90; C_v    -0.99; C_w    -0.89; C_x    -1.89; C_y     0.94; C_z     1.34; N_a     3.40; N_b     1.98; O_a     3.92; O_b     4.22; 
@    MULPOP    dipole moment & components:    182.3709;     -114.3247   -142.0880      0.0000
  18  Level shift: doubly occupied orbital energies shifted by -1.25D-02
 -----------------------------------------------------------------------------
  19  Screening settings (-IFTHRS, JTDIIS, DIFDEN, times)  -10   18    F  2.30D+01  2.31D+01
@ 19    -53966.4293406        1.61698D+04   -3.40D+02    8
      Virial theorem: -V/T =     45.457530
@    MULPOP   C_a    -1.10; C_b    -1.10; C_c     0.02; C_d    -0.84; C_e    -1.12; C_f    -1.15; C_g    -1.18; C_h    -0.97; C_i    -1.31; C_j    -1.50; 
@             C_k    -0.51; C_l    -1.87; C_m    -0.92; C_n     0.20; C_o     1.56; C_p     0.95; C_q     0.41; C_r    -1.02; C_s    -0.58; C_t    -1.13; 
@             C_u    -0.82; C_v    -1.00; C_w    -0.85; C_x    -1.91; C_y     1.07; C_z     1.42; N_a     3.41; N_b     1.99; O_a     3.89; O_b     4.12; 
@    MULPOP    dipole moment & components:    180.5750;     -113.5368   -140.4163      0.0000
  19  Level shift: doubly occupied orbital energies shifted by -1.25D-02
 -----------------------------------------------------------------------------
  20  Screening settings (-IFTHRS, JTDIIS, DIFDEN, times)  -10   19    F  2.30D+01  2.30D+01
@ 20    -53881.1947618        1.61231D+04    8.52D+01    8
      Virial theorem: -V/T =     45.354328
@    MULPOP   C_a    -1.13; C_b    -0.98; C_c     0.03; C_d    -0.76; C_e    -1.12; C_f    -1.17; C_g    -1.11; C_h    -0.95; C_i    -1.23; C_j    -1.53; 
@             C_k    -0.54; C_l    -1.80; C_m    -0.92; C_n     0.29; C_o     1.44; C_p     1.02; C_q     0.39; C_r    -1.01; C_s    -0.57; C_t    -0.96; 
@             C_u    -1.00; C_v    -1.07; C_w    -0.60; C_x    -1.91; C_y     1.07; C_z     1.38; N_a     3.41; N_b     1.84; O_a     3.75; O_b     3.82; 
@    MULPOP    dipole moment & components:    157.9357;      -98.4997   -123.4565      0.0000
  20  Level shift: doubly occupied orbital energies shifted by -1.25D-02
 -----------------------------------------------------------------------------
  21  Screening settings (-IFTHRS, JTDIIS, DIFDEN, times)  -10   20    F  2.30D+01  2.32D+01
@ 21    -55053.0788128        1.66876D+04   -1.17D+03    8
      Virial theorem: -V/T =     46.026977
@    MULPOP   C_a    -0.86; C_b    -0.70; C_c     0.38; C_d    -0.48; C_e    -0.70; C_f    -0.63; C_g    -0.81; C_h    -0.85; C_i    -0.63; C_j    -1.16; 
@             C_k    -0.12; C_l    -1.65; C_m    -0.36; C_n     0.33; C_o     1.71; C_p     1.21; C_q     0.32; C_r    -1.07; C_s    -0.56; C_t    -0.48; 
@             C_u    -0.85; C_v    -0.79; C_w    -0.47; C_x    -1.23; C_y     0.77; C_z     1.20; N_a     3.46; N_b    -0.06; O_a     2.28; O_b     0.14; 
@    MULPOP    dipole moment & components:    131.0650;       95.0211     90.2720      0.0000
  21  Level shift: doubly occupied orbital energies shifted by -1.25D-02
 -----------------------------------------------------------------------------
  22  Screening settings (-IFTHRS, JTDIIS, DIFDEN, times)  -10   21    F  2.29D+01  2.31D+01
@ 22    -58797.7500881        1.75955D+04   -3.74D+03    8
      Virial theorem: -V/T =     46.250190
@    MULPOP   C_a     0.27; C_b     0.36; C_c     0.65; C_d     0.15; C_e     0.14; C_f     0.67; C_g     0.61; C_h     0.83; C_i     0.51; C_j     0.02; 
@             C_k     0.83; C_l    -0.15; C_m     0.84; C_n     1.47; C_o     2.45; C_p     2.58; C_q     1.11; C_r    -0.30; C_s     0.51; C_t     0.75; 
@             C_u     0.36; C_v     0.66; C_w     0.70; C_x     0.49; C_y    -0.41; C_z    -1.51; N_a     5.01; N_b   -11.82; O_a    -2.91; O_b   -14.74; 
@    MULPOP    dipole moment & components:   1377.0313;      927.6360   1017.6968      0.0000
  22  Level shift: doubly occupied orbital energies shifted by -1.25D-02
 -----------------------------------------------------------------------------
  23  Screening settings (-IFTHRS, JTDIIS, DIFDEN, times)  -10   22    F  2.29D+01  2.30D+01
@ 23    -74299.7918286        1.29369D+04   -1.55D+04    8
      Virial theorem: -V/T =     59.684307
@    MULPOP   C_a    -0.28; C_b     0.22; C_c     0.66; C_d     0.15; C_e     0.12; C_f     0.96; C_g     0.33; C_h     0.68; C_i     0.23; C_j     0.25; 
@             C_k     0.59; C_l    -0.22; C_m     0.46; C_n    -0.06; C_o     3.55; C_p    -6.74; C_q    -2.28; C_r    -6.73; C_s    -6.71; C_t    -4.11; 
@             C_u     0.14; C_v     1.26; C_w     0.27; C_x     0.15; C_y     2.47; C_z     1.04; N_a    -1.84; N_b     4.00; O_a     5.97; O_b     5.98; 
@    MULPOP    dipole moment & components:    265.7154;     -178.2677   -197.0413      0.0000
  23  Level shift: doubly occupied orbital energies shifted by -1.25D-02
 -----------------------------------------------------------------------------
  24  Screening settings (-IFTHRS, JTDIIS, DIFDEN, times)  -10   23    F  2.29D+01  2.30D+01
@ 24    -76969.6036922        5.95375D+03   -2.67D+03    8
      Virial theorem: -V/T =    111.066358
@    MULPOP   C_a     2.27; C_b     2.68; C_c     2.69; C_d     2.72; C_e     2.54; C_f     3.29; C_g     3.05; C_h     2.81; C_i     3.01; C_j     2.69; 
@             C_k     3.23; C_l     2.82; C_m     3.58; C_n     4.20; C_o     5.06; C_p     4.77; C_q     5.10; C_r     5.84; C_s     3.13; C_t     2.58; 
@             C_u     3.47; C_v     2.75; C_w     3.12; C_x     3.06; C_y   -15.39; C_z    -0.54; N_a     6.95; N_b   -46.95; O_a   -18.37; O_b   -20.67; 
@    MULPOP    dipole moment & components:   3702.7167;     2540.6401   2693.5588      0.0000
 -----------------------------------------------------------------------------
  25  Screening settings (-IFTHRS, JTDIIS, DIFDEN, times)  -10   24    F  2.29D+01  2.31D+01
@ 25    -80679.9847906        1.06591D+03   -3.71D+03    8
      Virial theorem: -V/T =     70.206234
@    MULPOP   C_a    -0.05; C_b     1.29; C_c    -0.54; C_d     1.32; C_e    -0.19; C_f     0.44; C_g    -0.70; C_h    -6.49; C_i    -4.85; C_j    -5.50; 
@             C_k    -5.20; C_l    -1.44; C_m    -4.73; C_n    -4.74; C_o    -2.85; C_p   -15.71; C_q     2.38; C_r     1.22; C_s     1.40; C_t     1.03; 
@             C_u     1.37; C_v     0.66; C_w     0.66; C_x     1.06; C_y     4.98; C_z     4.90; N_a     0.27; N_b     6.87; O_a     7.97; O_b     8.02; 
@    MULPOP    dipole moment & components:   2453.9256;    -1728.1931  -1742.1536      0.0000
 -----------------------------------------------------------------------------
  26  Screening settings (-IFTHRS, JTDIIS, DIFDEN, times)  -10   25    F  2.29D+01  2.31D+01
@ 26    -79751.9880962        5.34583D+02    9.28D+02    8
      Virial theorem: -V/T =     75.697987
@    MULPOP   C_a     0.05; C_b     0.63; C_c     0.46; C_d     0.52; C_e     0.51; C_f     3.20; C_g     2.88; C_h     3.16; C_i     3.41; C_j     2.84; 
@             C_k     3.47; C_l     3.50; C_m     4.06; C_n     4.47; C_o     4.86; C_p     4.74; C_q     0.21; C_r     1.13; C_s     1.45; C_t     0.94; 
@             C_u     0.93; C_v     0.80; C_w     1.16; C_x     0.56; C_y     3.22; C_z   -10.96; N_a     6.97; N_b   -31.04; O_a   -13.98; O_b   -18.23; 
@    MULPOP    dipole moment & components:   3171.5551;     2174.7987   2308.4654      0.0000
 -----------------------------------------------------------------------------
  27  Screening settings (-IFTHRS, JTDIIS, DIFDEN, times)  -10   26    F  2.29D+01  2.30D+01
@ 27    -81160.9083782        3.08001D+02   -1.41D+03    8
      Virial theorem: -V/T =     72.592761
@    MULPOP   C_a    -1.96; C_b    -2.86; C_c     1.12; C_d    -5.83; C_e    -4.92; C_f    -5.45; C_g    -7.09; C_h    -5.12; C_i    -6.24; C_j    -5.50; 
@             C_k    -2.72; C_l    -2.49; C_m    10.15; C_n    -7.59; C_o    -0.27; C_p     1.22; C_q     1.95; C_r     1.07; C_s     1.05; C_t     0.66; 
@             C_u     0.52; C_v     0.27; C_w     1.18; C_x     0.98; C_y     4.55; C_z     4.48; N_a     5.29; N_b     6.70; O_a     5.97; O_b     8.01; 
@    MULPOP    dipole moment & components:   1259.6187;     -865.9952   -914.7085      0.0000
 -----------------------------------------------------------------------------
  28  Screening settings (-IFTHRS, JTDIIS, DIFDEN, times)  -10   27    F  2.29D+01  2.30D+01
@ 28    -80199.4252799        1.82180D+02    9.61D+02    8
      Virial theorem: -V/T =     71.651609
@    MULPOP   C_a     0.13; C_b     0.53; C_c     2.26; C_d     2.74; C_e     2.66; C_f     3.32; C_g     2.88; C_h     3.07; C_i     3.47; C_j     2.68; 
@             C_k     3.42; C_l     1.50; C_m     2.01; C_n     2.06; C_o     2.68; C_p     2.49; C_q     3.82; C_r     1.71; C_s     1.45; C_t     0.67; 
@             C_u     0.70; C_v     0.66; C_w     1.11; C_x     0.64; C_y     1.61; C_z   -18.01; N_a     4.93; N_b   -27.98; O_a    -3.98; O_b   -18.36; 
@    MULPOP    dipole moment & components:   2555.8889;     1728.5468   1882.7358      0.0000
 -----------------------------------------------------------------------------
  29  Screening settings (-IFTHRS, JTDIIS, DIFDEN, times)  -10   28    F  2.29D+01  2.30D+01
@ 29    -81506.8275061        7.22475D+01   -1.31D+03    8
      Virial theorem: -V/T =     66.926706
@    MULPOP   C_a    -4.07; C_b    -0.84; C_c    -1.66; C_d    -2.69; C_e     0.13; C_f     0.71; C_g     0.51; C_h     0.42; C_i     0.84; C_j     0.30; 
@             C_k     0.98; C_l    -1.87; C_m    -0.83; C_n    -2.89; C_o    -2.98; C_p    -6.47; C_q     1.57; C_r     1.84; C_s     0.92; C_t    -2.56; 
@             C_u    -2.41; C_v    -3.92; C_w    -1.82; C_x    -1.87; C_y     4.34; C_z     2.44; N_a    -2.13; N_b     4.61; O_a     5.95; O_b     5.97; 
@    MULPOP    dipole moment & components:   1141.1189;     -799.2650   -814.4494      0.0000
 -----------------------------------------------------------------------------
  30  Screening settings (-IFTHRS, JTDIIS, DIFDEN, times)  -10   29    T  2.24D+01  2.25D+01
@ 30    -81631.3130878        4.39064D+01   -1.24D+02    8
      Virial theorem: -V/T =     65.573784
@    MULPOP   C_a    -0.37; C_b     0.09; C_c    -0.61; C_d    -2.08; C_e    -3.25; C_f    -1.08; C_g    -5.07; C_h    -2.88; C_i    -3.52; C_j    -2.47; 
@             C_k     0.00; C_l     1.28; C_m     1.67; C_n     1.93; C_o     2.60; C_p     2.35; C_q    -0.49; C_r    -3.83; C_s    -0.60; C_t     1.17; 
@             C_u     0.48; C_v     0.55; C_w     0.90; C_x     0.83; C_y    -7.71; C_z     3.09; N_a     5.04; N_b     2.45; O_a    -1.34; O_b     5.03; 
@    MULPOP    dipole moment & components:    369.8330;      288.3342    231.6028      0.0000
 -----------------------------------------------------------------------------
  31  Screening settings (-IFTHRS, JTDIIS, DIFDEN, times)  -10   30    T  2.25D+01  2.26D+01
@ 31    -81649.3260978        3.20933D+01   -1.80D+01    8
      Virial theorem: -V/T =     66.111129
@    MULPOP   C_a    -4.92; C_b    -1.81; C_c    -0.04; C_d    -7.39; C_e    -1.24; C_f     2.38; C_g    -0.42; C_h     0.39; C_i     1.45; C_j    -1.28; 
@             C_k    -4.49; C_l    -5.59; C_m    -2.02; C_n     0.95; C_o     2.90; C_p     2.29; C_q     1.92; C_r     1.85; C_s    -0.46; C_t    -2.87; 
@             C_u    -2.69; C_v    -0.71; C_w    -0.93; C_x    -0.92; C_y     2.35; C_z     1.85; N_a     5.08; N_b     3.52; O_a     5.97; O_b    -1.43; 
@    MULPOP    dipole moment & components:    189.8529;     -127.3157   -140.8363      0.0000
 -----------------------------------------------------------------------------
  32  Screening settings (-IFTHRS, JTDIIS, DIFDEN, times)  -10   31    T  2.23D+01  2.25D+01
@ 32    -81669.5606598        2.70598D+01   -2.02D+01    8
      Virial theorem: -V/T =     66.169063
@    MULPOP   C_a    -0.61; C_b     0.51; C_c     1.03; C_d    -2.60; C_e    -0.38; C_f    -4.11; C_g    -1.01; C_h     3.08; C_i     2.25; C_j     6.24; 
@             C_k     3.35; C_l    -0.32; C_m     0.68; C_n     1.02; C_o     0.17; C_p    -3.65; C_q     1.28; C_r    -0.38; C_s    -1.91; C_t    -2.09; 
@             C_u    -2.09; C_v     1.79; C_w     1.15; C_x     0.63; C_y    -0.98; C_z    -2.47; N_a    -1.74; N_b    -1.62; O_a     0.62; O_b     5.27; 
@    MULPOP    dipole moment & components:    117.4601;      -84.8985    -81.1734      0.0000
 -----------------------------------------------------------------------------
  33  Screening settings (-IFTHRS, JTDIIS, DIFDEN, times)  -10   32    T  2.21D+01  2.23D+01
@ 33    -81696.2716166        2.14450D+01   -2.67D+01    8
      Virial theorem: -V/T =     67.069726
@    MULPOP   C_a    -2.59; C_b    -1.65; C_c    -1.61; C_d    -2.22; C_e    -1.99; C_f    -1.55; C_g    -3.10; C_h    -2.97; C_i    -3.57; C_j    -2.91; 
@             C_k     0.39; C_l     1.62; C_m    -1.08; C_n    -0.08; C_o     3.36; C_p     2.14; C_q     1.78; C_r    -0.15; C_s    -1.70; C_t    -1.91; 
@             C_u    -2.08; C_v    -1.02; C_w    -0.92; C_x    -0.73; C_y    -0.38; C_z     1.45; N_a     5.01; N_b     1.40; O_a     4.15; O_b     4.25; 
@    MULPOP    dipole moment & components:     62.7556;      -17.0824    -60.3859      0.0000
 -----------------------------------------------------------------------------
  34  Screening settings (-IFTHRS, JTDIIS, DIFDEN, times)  -10   33    T  2.20D+01  2.22D+01
@ 34    -81705.4716863        1.70410D+01   -9.20D+00    8
      Virial theorem: -V/T =     65.906683
@    MULPOP   C_a    -2.04; C_b    -1.27; C_c     1.28; C_d    -2.52; C_e     0.03; C_f    -2.39; C_g    -0.12; C_h     1.00; C_i     1.43; C_j     0.21; 
@             C_k    -1.39; C_l    -2.26; C_m    -1.24; C_n     0.44; C_o     1.87; C_p    -0.35; C_q     0.96; C_r    -0.45; C_s    -1.28; C_t    -1.33; 
@             C_u    -1.37; C_v     0.56; C_w    -0.19; C_x     0.05; C_y    -0.79; C_z     0.55; N_a     4.72; N_b     0.37; O_a    -1.02; O_b    -1.28; 
@    MULPOP    dipole moment & components:    235.2428;      162.4882    170.1081      0.0000
 -----------------------------------------------------------------------------
  35  Screening settings (-IFTHRS, JTDIIS, DIFDEN, times)  -10   34    T  2.20D+01  2.21D+01
@ 35    -81699.8268377        1.75102D+01    5.64D+00    8
      Virial theorem: -V/T =     66.668334
@    MULPOP   C_a    -1.53; C_b    -2.54; C_c    -0.31; C_d    -1.24; C_e    -0.65; C_f    -2.31; C_g     0.74; C_h     1.21; C_i     1.34; C_j    -0.74; 
@             C_k    -1.54; C_l    -1.18; C_m    -1.13; C_n     0.18; C_o     2.00; C_p    -3.70; C_q     1.17; C_r    -0.60; C_s    -0.95; C_t    -1.29; 
@             C_u    -1.43; C_v    -0.16; C_w     1.19; C_x    -0.43; C_y    -1.15; C_z     0.45; N_a    -1.98; N_b     2.03; O_a     4.18; O_b     4.29; 
@    MULPOP    dipole moment & components:    490.5838;     -343.3514   -350.4031      0.0000
 -----------------------------------------------------------------------------
  36  Screening settings (-IFTHRS, JTDIIS, DIFDEN, times)  -10   35    T  2.19D+01  2.20D+01
@ 36    -81731.2307809        7.08881D+00   -3.14D+01    8
      Virial theorem: -V/T =     67.078305
@    MULPOP   C_a    -2.85; C_b    -2.05; C_c    -1.27; C_d    -1.87; C_e    -1.39; C_f    -1.05; C_g    -1.62; C_h    -0.80; C_i    -0.65; C_j    -1.46; 
@             C_k    -0.77; C_l    -0.72; C_m    -0.56; C_n     0.31; C_o     1.45; C_p    -0.25; C_q     1.24; C_r    -0.59; C_s    -1.22; C_t    -1.96; 
@             C_u    -2.44; C_v    -0.81; C_w    -0.96; C_x    -0.21; C_y    -0.54; C_z    -0.03; N_a     3.02; N_b     1.62; O_a     4.18; O_b     4.38; 
@    MULPOP    dipole moment & components:    127.2842;      -73.4182   -103.9762      0.0000
 -----------------------------------------------------------------------------
  37  Screening settings (-IFTHRS, JTDIIS, DIFDEN, times)  -10   36    T  2.19D+01  2.20D+01
@ 37    -81713.7818499        1.28498D+01    1.74D+01    8
      Virial theorem: -V/T =     65.838133
@    MULPOP   C_a    -2.32; C_b    -1.23; C_c     0.85; C_d    -2.12; C_e    -0.03; C_f    -1.49; C_g    -1.23; C_h    -1.38; C_i    -1.48; C_j    -1.61; 
@             C_k    -0.93; C_l    -0.67; C_m    -0.67; C_n     1.12; C_o     2.07; C_p    -0.18; C_q     1.63; C_r     0.31; C_s    -0.28; C_t    -1.83; 
@             C_u    -1.39; C_v     0.69; C_w     1.03; C_x    -0.27; C_y    -0.38; C_z     0.12; N_a     3.03; N_b    -0.30; O_a    -0.53; O_b    -1.17; 
@    MULPOP    dipole moment & components:    172.9624;      120.7479    123.8384      0.0000
 -----------------------------------------------------------------------------
  38  Screening settings (-IFTHRS, JTDIIS, DIFDEN, times)  -10   37    T  2.17D+01  2.18D+01
@ 38    -81736.1621338        3.13305D+00   -2.24D+01    8
      Virial theorem: -V/T =     66.618858
@    MULPOP   C_a    -2.05; C_b    -2.11; C_c    -0.31; C_d    -1.16; C_e    -1.21; C_f    -0.89; C_g    -0.93; C_h    -1.22; C_i    -1.15; C_j    -1.63; 
@             C_k    -1.06; C_l    -0.90; C_m    -1.24; C_n     0.48; C_o     1.60; C_p    -0.33; C_q     1.46; C_r    -0.56; C_s    -1.37; C_t    -1.94; 
@             C_u    -1.67; C_v    -0.37; C_w     0.06; C_x     0.05; C_y    -0.56; C_z     0.01; N_a     2.98; N_b     0.90; O_a     2.50; O_b     2.69; 
@    MULPOP    dipole moment & components:     56.0717;      -29.0019    -47.9887      0.0000
 -----------------------------------------------------------------------------
  39  Screening settings (-IFTHRS, JTDIIS, DIFDEN, times)  -10   38    T  2.18D+01  2.19D+01
@ 39    -81736.5668194        1.66109D+00   -4.05D-01    8
      Virial theorem: -V/T =     66.579530
@    MULPOP   C_a    -2.41; C_b    -1.96; C_c    -0.75; C_d    -1.41; C_e    -1.38; C_f    -0.97; C_g    -0.93; C_h    -0.97; C_i    -1.02; C_j    -1.46; 
@             C_k    -0.81; C_l    -0.75; C_m    -1.03; C_n     0.53; C_o     1.79; C_p    -0.65; C_q     1.47; C_r    -0.52; C_s    -1.31; C_t    -1.73; 
@             C_u    -1.66; C_v    -0.25; C_w    -0.31; C_x     0.10; C_y    -0.61; C_z     0.10; N_a     3.05; N_b     0.86; O_a     2.58; O_b     2.61; 
@    MULPOP    dipole moment & components:     41.7745;      -18.1836    -37.6093      0.0000
 -----------------------------------------------------------------------------
  40  Screening settings (-IFTHRS, JTDIIS, DIFDEN, times)  -10   39    T  2.16D+01  2.17D+01
@ 40    -81736.6351533        8.59789D-01   -6.83D-02    8
      Virial theorem: -V/T =     66.571890
@    MULPOP   C_a    -2.42; C_b    -1.87; C_c    -0.77; C_d    -1.25; C_e    -1.30; C_f    -0.91; C_g    -0.95; C_h    -0.97; C_i    -0.97; C_j    -1.64; 
@             C_k    -0.90; C_l    -0.78; C_m    -1.11; C_n     0.52; C_o     1.88; C_p    -0.66; C_q     1.47; C_r    -0.46; C_s    -1.19; C_t    -1.69; 
@             C_u    -1.80; C_v    -0.37; C_w    -0.25; C_x     0.06; C_y    -0.60; C_z     0.11; N_a     3.01; N_b     0.88; O_a     2.58; O_b     2.58; 
@    MULPOP    dipole moment & components:     48.7279;      -23.4854    -42.6948      0.0000
 -----------------------------------------------------------------------------
  41  Screening settings (-IFTHRS, JTDIIS, DIFDEN, times)  -10   40    T  2.14D+01  2.15D+01
@ 41    -81736.6700845        5.54382D-01   -3.49D-02    8
      Virial theorem: -V/T =     66.571328
@    MULPOP   C_a    -2.37; C_b    -1.89; C_c    -0.80; C_d    -1.26; C_e    -1.33; C_f    -0.90; C_g    -0.96; C_h    -0.98; C_i    -0.88; C_j    -1.67; 
@             C_k    -0.88; C_l    -0.79; C_m    -1.13; C_n     0.49; C_o     1.95; C_p    -0.72; C_q     1.48; C_r    -0.43; C_s    -1.18; C_t    -1.70; 
@             C_u    -1.78; C_v    -0.38; C_w    -0.17; C_x    -0.01; C_y    -0.61; C_z     0.12; N_a     3.00; N_b     0.92; O_a     2.58; O_b     2.55; 
@    MULPOP    dipole moment & components:     50.7434;      -25.3442    -43.9610      0.0000
 -----------------------------------------------------------------------------
  42  Screening settings (-IFTHRS, JTDIIS, DIFDEN, times)  -10   41    T  2.11D+01  2.13D+01
@ 42    -81736.6921801        3.25998D-01   -2.21D-02    8
      Virial theorem: -V/T =     66.572117
@    MULPOP   C_a    -2.34; C_b    -1.88; C_c    -0.83; C_d    -1.22; C_e    -1.37; C_f    -0.87; C_g    -1.00; C_h    -1.04; C_i    -0.87; C_j    -1.66; 
@             C_k    -0.89; C_l    -0.77; C_m    -1.10; C_n     0.47; C_o     1.99; C_p    -0.77; C_q     1.49; C_r    -0.41; C_s    -1.18; C_t    -1.70; 
[...]
 855 N_a :3d2-  -0.0571  -0.0069   0.0044   0.0009  -0.0012   0.0000
 856 N_a :3d1-   0.0000   0.0000  -0.0000   0.0000   0.0000  -0.0191
 858 N_a :3d1+   0.0000  -0.0000   0.0000  -0.0000  -0.0000  -0.0181
 859 N_a :3d2+  -0.1031   0.0033   0.0024   0.0010  -0.0014   0.0000
 860 N_a :3d2-  -0.0040  -0.0310   0.0233  -0.0028  -0.0049   0.0000
 862 N_a :3d0   -0.0021   0.0330   0.0026  -0.0083   0.0046  -0.0000
 864 N_a :3d2+  -0.0041  -0.0084   0.0313  -0.0216   0.0003   0.0000
 866 N_b :1s     0.0002   0.0002  -0.0025  -0.0008  -0.0800   0.0000
 867 N_b :1s    -0.0020   0.0009   0.0228   0.0056  -0.0832  -0.0000
 868 N_b :1s    -0.0155   0.0102   0.0843   0.1551  -0.0063   0.0000
 869 N_b :1s    -0.0686   0.1299  -0.3205   0.5169  -0.3757  -0.0000
 870 N_b :2px    0.0000   0.0009  -0.0006   0.0005  -0.0191   0.0000
 871 N_b :2py    0.0001   0.0011  -0.0004   0.0002  -0.0727   0.0000
 873 N_b :2px   -0.0005  -0.0072   0.0045  -0.0240  -0.0141  -0.0000
 874 N_b :2py    0.0009   0.0016   0.0020  -0.0045   0.0459  -0.0000
 876 N_b :2px   -0.0549   0.2047  -0.4778   0.1661   0.1097   0.0000
 877 N_b :2py   -0.0061   0.0540   0.0141  -0.0292  -0.0439  -0.0000
 879 N_b :2px    0.0146  -0.0873   0.0519   0.1009  -0.0045  -0.0000
 880 N_b :2py    0.0043   0.1413  -0.3397   0.3611  -0.2209  -0.0000
 882 N_b :3d2-   0.0000   0.0002  -0.0000   0.0002  -0.0176  -0.0000
 886 N_b :3d2+   0.0000   0.0001   0.0002  -0.0000  -0.0194  -0.0000
 887 N_b :3d2-  -0.0012   0.0040  -0.0096  -0.0033  -0.0448   0.0000
 889 N_b :3d0    0.0001   0.0000   0.0011  -0.0049   0.0281  -0.0000
 891 N_b :3d2+  -0.0018   0.0012  -0.0059   0.0140  -0.0819   0.0000
 892 N_b :3d2-   0.0088  -0.0907   0.1474  -0.0617   0.0338   0.0000
 894 N_b :3d0    0.0027  -0.0051   0.0289  -0.0163   0.0245  -0.0000
 896 N_b :3d2+   0.0017  -0.0757   0.0400   0.0551  -0.1192   0.0000
 898 O_a :1s    -0.0001   0.0007  -0.0004   0.0025   0.0264   0.0000
 899 O_a :1s     0.0016  -0.0044   0.0082  -0.0225   0.0959  -0.0000
 900 O_a :1s    -0.0147   0.1654  -0.2298  -0.0559   0.2748  -0.0000
 901 O_a :1s     0.0134  -0.1524   0.1905  -0.2091   0.1858  -0.0000
 902 O_a :2px   -0.0001  -0.0009   0.0005  -0.0004  -0.1058   0.0000
 905 O_a :2px    0.0009  -0.0021   0.0015  -0.0097   0.0874  -0.0000
 908 O_a :2px    0.0070  -0.0419   0.0195  -0.0062  -0.0135  -0.0000
 909 O_a :2py    0.0152  -0.0973   0.1542  -0.0441   0.0441  -0.0000
 911 O_a :2px   -0.0024   0.0176  -0.0247  -0.0007   0.0084  -0.0000
 912 O_a :2py   -0.0030  -0.0342   0.0926  -0.1373   0.0732   0.0000
 924 O_a :3d2-   0.0031  -0.0215   0.0245  -0.0001  -0.0009  -0.0000
 926 O_a :3d0   -0.0023   0.0161  -0.0193  -0.0002   0.0110   0.0000
 930 O_b :1s    -0.0001  -0.0006   0.0004   0.0005   0.0471  -0.0000
 931 O_b :1s    -0.0001   0.0050  -0.0073  -0.0038   0.0204   0.0000
 932 O_b :1s     0.0337  -0.1178   0.3116  -0.1659   0.0419  -0.0000
 933 O_b :1s     0.0250   0.0279   0.2270  -0.2975   0.2309   0.0000
 934 O_b :2px    0.0000   0.0001  -0.0000  -0.0001  -0.1916   0.0000
 935 O_b :2py   -0.0001   0.0003  -0.0006   0.0003  -0.0800   0.0000
 937 O_b :2px    0.0002  -0.0034   0.0063  -0.0036   0.0608  -0.0000
 938 O_b :2py    0.0012   0.0012   0.0022  -0.0049   0.0569   0.0000
 940 O_b :2px    0.0046   0.0236   0.0042  -0.0627   0.1641  -0.0000
 941 O_b :2py   -0.0042   0.0904  -0.1022  -0.0062   0.1193   0.0000
 943 O_b :2px   -0.0078  -0.0398   0.0665  -0.0588   0.0354   0.0000
 944 O_b :2py    0.0063  -0.0542   0.1594  -0.1292   0.0885   0.0000
 950 O_b :3d2+   0.0000  -0.0002   0.0000  -0.0001   0.0119  -0.0000
 951 O_b :3d2-  -0.0001  -0.0006   0.0012  -0.0012  -0.0113  -0.0000
 956 O_b :3d2-   0.0016  -0.0086   0.0141  -0.0062   0.0216  -0.0000
 958 O_b :3d0    0.0023  -0.0115   0.0236  -0.0133  -0.0070  -0.0000
 960 O_b :3d2+   0.0007  -0.0149   0.0111   0.0050  -0.0382  -0.0000
 962 H_a :1s     0.0240  -0.0357   0.1786  -0.0481  -0.0262  -0.0000
 963 H_a :1s     0.0385  -0.1351   0.4213  -0.1683  -0.0817  -0.0000
 964 H_a :1s     0.0068   0.0673  -0.2450   0.1781  -0.0515  -0.0000
 968 H_a :2px    0.0063   0.0409  -0.0141   0.0220  -0.0066  -0.0000
 969 H_a :2py   -0.0005   0.0460  -0.0511   0.0164   0.0046  -0.0000
 971 H_a :2px   -0.0014  -0.0429   0.0709  -0.0158   0.0040   0.0000
 972 H_a :2py    0.0048   0.0308   0.0370  -0.0278  -0.0094  -0.0000
 974 H_b :1s    -0.0005   0.0012  -0.0105   0.0055   0.0002   0.0000
 975 H_b :1s    -0.0095  -0.0087  -0.0643   0.0135   0.0020   0.0000
 976 H_b :1s     0.0048  -0.0732   0.0649  -0.0219   0.0418   0.0000
 977 H_b :1s    -0.0224  -0.2034   0.0447  -0.0496  -0.0627  -0.0000
 981 H_b :2px    0.0082  -0.0239   0.1000  -0.0604   0.0057  -0.0000
 982 H_b :2py    0.0059  -0.0146   0.0699  -0.0601   0.0050  -0.0000
 984 H_b :2px    0.0023   0.0107  -0.0378   0.0503  -0.0178  -0.0000
 985 H_b :2py    0.0051  -0.0188   0.0614  -0.0208  -0.0209   0.0000
 987 H_c :1s    -0.0005  -0.0037  -0.0070   0.0106  -0.0011  -0.0000
 988 H_c :1s    -0.0136  -0.0577  -0.1789   0.1090  -0.0176   0.0000
 989 H_c :1s     0.0164  -0.0884   0.0299   0.0973   0.0980   0.0000
 990 H_c :1s     0.0133  -0.1074   0.1164  -0.0401   0.0034   0.0000
 994 H_c :2px   -0.0017  -0.0191  -0.0415   0.0622  -0.0029  -0.0000
 995 H_c :2py    0.0015   0.0141  -0.0034   0.0349  -0.0033  -0.0000
 997 H_c :2px    0.0123  -0.0270   0.1085  -0.0311  -0.0066  -0.0000
 998 H_c :2py   -0.0046   0.0114  -0.1211   0.0136  -0.0081   0.0000
1001 H_d :1s     0.0090  -0.1346   0.1800  -0.1085   0.0300  -0.0000
1002 H_d :1s    -0.0231   0.2470  -0.0557   0.1047   0.1263   0.0000
1003 H_d :1s     0.0350   0.1756   0.0632  -0.1305   0.0884   0.0000
1007 H_d :2px    0.0025   0.0388  -0.0064  -0.0343  -0.0043   0.0000
1008 H_d :2py    0.0044   0.0049   0.0496  -0.0742   0.0115  -0.0000
1010 H_d :2px    0.0118  -0.1225   0.1035  -0.0853   0.0118  -0.0000
1011 H_d :2py   -0.0070   0.0681  -0.1229   0.0562   0.0293   0.0000
1014 H_e :1s    -0.0141  -0.0123  -0.1599   0.0869  -0.0593   0.0000
1015 H_e :1s    -0.0032   0.1594   0.4124  -0.1202   0.0124   0.0000
1016 H_e :1s    -0.0244  -0.0420   0.1505  -0.1249   0.0233   0.0000
1020 H_e :2px    0.0004  -0.0255   0.0013   0.0730  -0.0131   0.0000
1021 H_e :2py    0.0037  -0.0261   0.0314   0.0398   0.0052  -0.0000
1023 H_e :2px   -0.0016   0.0035  -0.0257   0.0216   0.0220   0.0000
1024 H_e :2py   -0.0059   0.0280  -0.0756   0.0356  -0.0009  -0.0000
1027 H_f :1s    -0.0235   0.0037  -0.2335   0.0650  -0.0038  -0.0000
1028 H_f :1s     0.0005   0.1619   0.0968  -0.0687  -0.0019  -0.0000
1029 H_f :1s     0.0336   0.1641  -0.1069   0.0691   0.0061  -0.0000
1033 H_f :2px    0.0033   0.0225  -0.0165  -0.0496  -0.0050   0.0000
1034 H_f :2py   -0.0029   0.0179  -0.0757  -0.0222  -0.0087  -0.0000
1036 H_f :2px   -0.0032   0.0583  -0.0538   0.0548  -0.0083   0.0000
1037 H_f :2py    0.0062  -0.0308   0.0878  -0.0568  -0.0010   0.0000
1040 H_g :1s    -0.0123  -0.1516   0.0091  -0.2405   0.0718  -0.0000
1041 H_g :1s     0.0337   0.0758  -0.1810  -0.1296   0.0251  -0.0000
1042 H_g :1s    -0.0056   0.0925  -0.1783   0.0522  -0.0319   0.0000
1046 H_g :2px    0.0045  -0.0019   0.0480   0.0003   0.0091  -0.0000
1047 H_g :2py    0.0050   0.0313   0.0125   0.0753  -0.0151  -0.0000
1049 H_g :2px    0.0084   0.0971   0.0569  -0.0491   0.0126  -0.0000
1050 H_g :2py   -0.0020  -0.0409   0.0110   0.0040  -0.0168   0.0000
1053 H_h :1s    -0.0278  -0.1061  -0.2776   0.0796  -0.0178   0.0000
1054 H_h :1s     0.0286  -0.1863  -0.0571  -0.1036   0.0422  -0.0000
1055 H_h :1s    -0.0273  -0.1560  -0.1108   0.1114  -0.0778  -0.0000
1059 H_h :2px   -0.0017  -0.0226  -0.0067  -0.0548   0.0015  -0.0000
1060 H_h :2py   -0.0095  -0.0423  -0.0900  -0.0041  -0.0114   0.0000
1062 H_h :2px   -0.0012  -0.0011   0.0174   0.0028  -0.0109   0.0000
1063 H_h :2py    0.0019   0.0433  -0.0070   0.0165   0.0019  -0.0000
1066 H_i :1s     0.0054   0.0356  -0.0516  -0.0378   0.0191  -0.0000
1067 H_i :1s     0.0051  -0.0458  -0.0300  -0.3547   0.1313  -0.0000
1068 H_i :1s     0.0292   0.0038  -0.0338   0.0883   0.0186  -0.0000
1072 H_i :2px   -0.0012   0.0325  -0.0198   0.0336  -0.0056  -0.0000
1073 H_i :2py   -0.0034   0.0161  -0.0037   0.0291  -0.0056   0.0000
1075 H_i :2px   -0.0025  -0.0286  -0.0975   0.0175  -0.0074   0.0000
1076 H_i :2py   -0.0004   0.0367  -0.0156   0.1001  -0.0252   0.0000
1078 H_j :1s    -0.0001   0.0012   0.0146  -0.0033   0.0023  -0.0000
1079 H_j :1s    -0.0048  -0.0493   0.2728  -0.2291   0.0594  -0.0000
1080 H_j :1s    -0.0003   0.0423   0.1852  -0.5169   0.1964   0.0000
1081 H_j :1s    -0.0491  -0.1142   0.1544  -0.0507   0.0031   0.0000
1085 H_j :2px   -0.0035  -0.0314  -0.0750   0.0146  -0.0101   0.0000
1086 H_j :2py   -0.0041  -0.0397   0.0147  -0.0487   0.0046  -0.0000
1088 H_j :2px    0.0079   0.0064   0.0080   0.0425  -0.0222  -0.0000
1089 H_j :2py    0.0112  -0.0119   0.0211  -0.0493   0.0010   0.0000
1092 H_k :1s    -0.0252   0.0677  -0.2962   0.0870  -0.0321   0.0000
1093 H_k :1s     0.0446   0.0823   0.0792  -0.2340   0.0242   0.0000
1094 H_k :1s    -0.0268  -0.0958   0.1981   0.0222   0.0070  -0.0000
1098 H_k :2px   -0.0091   0.0300  -0.0456   0.0181  -0.0083   0.0000
1099 H_k :2py   -0.0015   0.0059   0.0560  -0.0204   0.0044  -0.0000
1101 H_k :2px    0.0107   0.0369   0.0796  -0.0597   0.0121  -0.0000
1102 H_k :2py   -0.0055  -0.0201   0.0245  -0.0232   0.0067  -0.0000
1105 H_l :1s     0.0292   0.0180   0.0551  -0.1390   0.0663   0.0000
1106 H_l :1s     0.0301   0.0943   0.0738  -0.0370   0.0019   0.0000
1107 H_l :1s     0.0352   0.1019   0.1134  -0.0476   0.0128  -0.0000
1111 H_l :2px   -0.0113  -0.0255  -0.0289  -0.0012  -0.0090  -0.0000
1112 H_l :2py   -0.0008  -0.0206  -0.0015  -0.0381   0.0095   0.0000
1114 H_l :2px   -0.0141   0.0413  -0.0245  -0.0473   0.0325   0.0000
1115 H_l :2py    0.0058   0.0238   0.0711  -0.0821   0.0371  -0.0000
1118 H_m :1s    -0.0350   0.0009  -0.0534   0.0522  -0.0175  -0.0000
1119 H_m :1s    -0.1089  -0.0480  -0.0796   0.3062  -0.1526   0.0000
1120 H_m :1s    -0.0417   0.0356  -0.1304  -0.0462  -0.0176   0.0000
1124 H_m :2px   -0.0140  -0.0086   0.0035  -0.0038  -0.0024  -0.0000
1125 H_m :2py    0.0015  -0.0060   0.0227  -0.0282   0.0062  -0.0000
1127 H_m :2px   -0.0168  -0.0645   0.0232   0.0276  -0.0105   0.0000
1128 H_m :2py    0.0091  -0.0345   0.1155  -0.0469   0.0382  -0.0000
1131 H_n :1s    -0.0154   0.0950  -0.0275  -0.0230  -0.0227   0.0000
1132 H_n :1s    -0.1228   0.1927  -0.0565   0.1512  -0.1994   0.0000
1133 H_n :1s     0.0848   0.0644  -0.1797  -0.0537   0.0469  -0.0000
1137 H_n :2px   -0.0045  -0.0292   0.0079  -0.0095   0.0028  -0.0000
1138 H_n :2py   -0.0122   0.0054  -0.0150  -0.0182  -0.0034  -0.0000
1140 H_n :2px    0.0073   0.0505  -0.0275   0.0576  -0.0122  -0.0000
1141 H_n :2py   -0.0303   0.1181  -0.0667   0.0393  -0.0368   0.0000
1144 H_o :1s     0.0173   0.0405   0.1529  -0.0614   0.0253   0.0000
1145 H_o :1s     0.0184   0.0462   0.2291   0.0648  -0.0684  -0.0000
1146 H_o :1s     0.0932  -0.0032   0.0435  -0.0246   0.0465  -0.0000
1150 H_o :2px   -0.0108   0.0122   0.0308  -0.0126   0.0048   0.0000
1151 H_o :2py   -0.0163  -0.0071  -0.0154   0.0115  -0.0079  -0.0000
1153 H_o :2px    0.0033  -0.0076   0.1408   0.0427  -0.0085  -0.0000
1154 H_o :2py    0.0124   0.0127  -0.0247   0.0467  -0.0295   0.0000
1156 H_p :1s     0.0906  -0.0026   0.0004   0.0002  -0.0001   0.0000
1157 H_p :1s     0.0832   0.0144   0.0028  -0.0125   0.0068   0.0000
1158 H_p :1s     0.1712  -0.2430  -0.0957   0.2360  -0.0307  -0.0000
1159 H_p :1s    -0.1067  -0.0610   0.0636   0.0724  -0.0445   0.0000
1160 H_p :2px   -0.0124   0.0001  -0.0002   0.0002  -0.0001  -0.0000
1163 H_p :2px   -0.0124  -0.0087   0.0155  -0.0056  -0.0010   0.0000
1164 H_p :2py    0.0266  -0.0001   0.0039  -0.0077   0.0019   0.0000
1166 H_p :2px   -0.0260   0.0074   0.0104  -0.0081  -0.0031   0.0000
1167 H_p :2py    0.0137  -0.0258  -0.0347   0.0919  -0.0299  -0.0000
1169 H_q :1s     0.0003   0.0011   0.0005   0.0012   0.0772   0.0000
1170 H_q :1s     0.0026   0.0494   0.0022   0.0680  -0.0397  -0.0000
1171 H_q :1s    -0.0837  -0.0557  -0.5365   0.5904  -0.3820  -0.0000
1172 H_q :1s    -0.0027   0.2816  -0.1190   0.0308   0.1634  -0.0000
1176 H_q :2px   -0.0003   0.0123  -0.0090   0.0368   0.0121   0.0000
1177 H_q :2py   -0.0016   0.0036  -0.0228   0.0241   0.0217   0.0000
1179 H_q :2px   -0.0154   0.0075  -0.0046  -0.0078  -0.0251  -0.0000
1180 H_q :2py    0.0068   0.1109  -0.0042  -0.0203   0.0182   0.0000
1182 H_r :1s    -0.0007   0.0037  -0.0072   0.0040  -0.0220  -0.0000
1183 H_r :1s    -0.0187   0.0841  -0.2074   0.1053  -0.0640   0.0000
1184 H_r :1s    -0.0359  -0.0809  -0.6336   0.3800  -0.1562   0.0000
1185 H_r :1s    -0.0203  -0.3954   0.2456   0.0106  -0.1983  -0.0000
1189 H_r :2px    0.0026  -0.0144   0.0240   0.0096  -0.0084  -0.0000
1190 H_r :2py   -0.0018   0.0106  -0.0446   0.0460  -0.0388   0.0000
1192 H_r :2px    0.0160   0.0508   0.0925   0.0057   0.0044  -0.0000
1193 H_r :2py   -0.0061   0.0296  -0.1202   0.1017  -0.0172   0.0000
1196 H_s :1s     0.0107   0.0099   0.0896  -0.0532   0.0417   0.0000
1197 H_s :1s     0.0439  -0.1450   0.0344  -0.0903   0.0441  -0.0000
1198 H_s :1s     0.0253  -0.1646   0.0221   0.0853  -0.1264   0.0000
1202 H_s :2px    0.0025   0.0157  -0.0020   0.0230   0.0189   0.0000
1203 H_s :2py   -0.0015   0.0144  -0.0372   0.0465   0.0071   0.0000
1205 H_s :2px   -0.0021   0.0706  -0.1612   0.1305  -0.0468   0.0000
1206 H_s :2py   -0.0083   0.0234  -0.0411   0.0715  -0.0213   0.0000
1209 H_t :1s    -0.0057  -0.0539   0.1145  -0.0237  -0.0224  -0.0000
1210 H_t :1s    -0.0570  -0.1082   0.2329  -0.3644   0.0646  -0.0000
1211 H_t :1s     0.0342   0.1518  -0.0933  -0.0668   0.0552   0.0000
1215 H_t :2px    0.0014   0.0074  -0.0184   0.0154  -0.0109   0.0000
1216 H_t :2py   -0.0000  -0.0099   0.0253   0.0029  -0.0182   0.0000
1218 H_t :2px    0.0128   0.0095   0.0389   0.0329  -0.0216   0.0000
1219 H_t :2py    0.0079  -0.0138   0.1082  -0.0452  -0.0062  -0.0000
1222 H_u :1s     0.0054   0.0877  -0.1117  -0.0100  -0.0075  -0.0000
1223 H_u :1s    -0.0432   0.0028   0.2627  -0.4721   0.2387  -0.0000
1224 H_u :1s    -0.0034  -0.1222   0.2378  -0.1825   0.0453   0.0000
1228 H_u :2px    0.0040   0.0383  -0.0259   0.0103   0.0111  -0.0000
1229 H_u :2py    0.0039   0.0024   0.0236   0.0016   0.0147  -0.0000
1231 H_u :2px   -0.0024  -0.0307   0.1318  -0.1124   0.0399  -0.0000
1232 H_u :2py    0.0113   0.0110  -0.0119   0.0253  -0.0503  -0.0000
1235 H_v :1s     0.0158  -0.0328   0.1708  -0.0033   0.0080  -0.0000
1236 H_v :1s    -0.0332  -0.0371   0.1479  -0.0810   0.1420   0.0000
1237 H_v :1s     0.0218   0.2889  -0.1000   0.0223   0.1095   0.0000
1241 H_v :2px   -0.0019  -0.0068  -0.0030  -0.0145   0.0016   0.0000
1242 H_v :2py    0.0021  -0.0103   0.0254   0.0023  -0.0010   0.0000
1244 H_v :2px    0.0078   0.0603  -0.0400  -0.0214   0.0132  -0.0000
1245 H_v :2py   -0.0045   0.0140   0.0342  -0.0353   0.0224   0.0000
1248 H_w :1s     0.0043  -0.0514   0.1949  -0.1358   0.0111  -0.0000
1249 H_w :1s     0.0104  -0.0113   0.0637  -0.0316   0.0406   0.0000
1250 H_w :1s    -0.0247   0.1334  -0.0759   0.0138   0.0452  -0.0000
1254 H_w :2px    0.0035   0.0448  -0.0158   0.0037   0.0116  -0.0000
1255 H_w :2py    0.0017   0.0537  -0.0499   0.0303   0.0105   0.0000
1257 H_w :2px   -0.0014   0.0375  -0.0767   0.0181  -0.0026   0.0000
1258 H_w :2py   -0.0072  -0.0147  -0.0177   0.0132   0.0214   0.0000
1261 H_x :1s    -0.0037  -0.0850   0.1384  -0.1350   0.0228  -0.0000
1262 H_x :1s     0.0096  -0.2065   0.4669  -0.1697  -0.0097   0.0000
1263 H_x :1s    -0.0341  -0.1657  -0.0256   0.1193  -0.1004  -0.0000
1267 H_x :2px    0.0015  -0.0199   0.0260  -0.0116  -0.0024   0.0000
1268 H_x :2py    0.0004  -0.0379   0.0454  -0.0379   0.0018  -0.0000
1270 H_x :2px   -0.0062  -0.0057  -0.0231   0.0045  -0.0129  -0.0000
1271 H_x :2py    0.0033  -0.0020   0.0439  -0.0424   0.0204  -0.0000
1273 H_y :1s    -0.0001  -0.0007   0.0017  -0.0003   0.2840  -0.0000
1274 H_y :1s    -0.0023  -0.0681   0.1165  -0.0226   0.3818   0.0000
1275 H_y :1s     0.0753   0.1307   0.4317  -0.3335   0.3330  -0.0000
1276 H_y :1s    -0.0098  -0.1054   0.0036  -0.0180  -0.1114   0.0000
1277 H_y :2px    0.0000   0.0001   0.0000  -0.0000   0.0253  -0.0000
1278 H_y :2py   -0.0002  -0.0001  -0.0003   0.0004  -0.0186   0.0000
1280 H_y :2px    0.0002  -0.0183   0.0312  -0.0081   0.1233   0.0000
1281 H_y :2py   -0.0003   0.0076  -0.0111   0.0009  -0.0593  -0.0000
1283 H_y :2px    0.0120  -0.0036   0.1058  -0.1386   0.0938  -0.0000
1284 H_y :2py   -0.0169  -0.0214  -0.0122  -0.0712   0.0432   0.0000
1286 H_z :1s    -0.0002   0.0022  -0.0027   0.0004  -0.3295  -0.0000
1287 H_z :1s    -0.0029   0.0735  -0.0664   0.0117  -0.3011  -0.0000
1288 H_z :1s    -0.0631   0.0716  -0.2603   0.2641  -0.3509  -0.0000
1289 H_z :1s    -0.0008   0.1399  -0.0378  -0.0357   0.1476   0.0000
1290 H_z :2px   -0.0001   0.0004  -0.0006   0.0004   0.0276   0.0000
1291 H_z :2py   -0.0001  -0.0006  -0.0002   0.0006  -0.0224  -0.0000
1293 H_z :2px   -0.0011  -0.0170   0.0041   0.0163   0.0733  -0.0000
1294 H_z :2py   -0.0009   0.0004  -0.0014   0.0096  -0.0472  -0.0000
1296 H_z :2px    0.0023   0.0020   0.0583  -0.0572   0.0493  -0.0000
1297 H_z :2py   -0.0126  -0.0287   0.1198  -0.0911   0.0450  -0.0000
1299 H_{ :1s    -0.2220   0.0046  -0.0014   0.0014  -0.0005   0.0000
1300 H_{ :1s    -0.0136   0.0179  -0.0333   0.0268  -0.0140  -0.0000
1301 H_{ :1s     0.0272   0.0692   0.0058  -0.2217   0.0403   0.0000
1302 H_{ :1s    -0.0535  -0.0247  -0.0387   0.0434  -0.0299   0.0000
1304 H_{ :2py    0.0187  -0.0011   0.0008  -0.0001  -0.0000  -0.0000
1305 H_{ :2pz    0.0000   0.0000   0.0000  -0.0000   0.0000   0.0118
1306 H_{ :2px   -0.0473  -0.0007   0.0017  -0.0009  -0.0013   0.0000
1307 H_{ :2py    0.0249  -0.0049   0.0121  -0.0094   0.0036   0.0000
1309 H_{ :2px    0.0231   0.0349  -0.0311   0.0234  -0.0439   0.0000
1310 H_{ :2py   -0.0061  -0.0163   0.0069   0.0413  -0.0134  -0.0000
1312 H_| :1s     0.2889  -0.0138  -0.0002  -0.0005  -0.0000  -0.0000
1313 H_| :1s     0.0283   0.0155   0.0230  -0.0058  -0.0001  -0.0000
1314 H_| :1s     0.0441  -0.0277  -0.0426  -0.1840   0.2469  -0.0000
1315 H_| :1s     0.0337   0.0481   0.0194  -0.0541   0.0290  -0.0000
1316 H_| :2px   -0.0232   0.0008  -0.0005   0.0002  -0.0000   0.0000
1318 H_| :2pz    0.0000   0.0000   0.0000  -0.0000   0.0000   0.0125
1319 H_| :2px   -0.0633   0.0022  -0.0014   0.0010   0.0002   0.0000
1320 H_| :2py    0.0101   0.0042  -0.0034   0.0023   0.0002  -0.0000
1322 H_| :2px    0.0098   0.0180   0.0022   0.0328  -0.0576   0.0000
1323 H_| :2py   -0.0064  -0.0082   0.0607   0.0240  -0.0151  -0.0000

  Total CPU  time used in SIRIUS :   3 hours  3 minutes 10 seconds
  Total wall time used in SIRIUS :   3 hours  4 minutes 12 seconds

 
     Date and time (Linux)  : Thu May 29 21:09:10 2025
     Host name              : xm009                                   

 NOTE:    3 warnings have been issued.
 Check output, result, and error files for "WARNING".


                     .---------------------------------------.
                     | End of Wave Function Section (SIRIUS) |
                     `---------------------------------------'


@ - DALTON aborted because wave function not converged!

  --- SEVERE ERROR, PROGRAM WILL BE ABORTED ---
     Date and time (Linux)  : Thu May 29 21:09:10 2025
     Host name              : xm009                                   

@ MPI MASTER, node no.:     0
@ Reason: DALTON aborted because wave function not converged

  Total CPU  time used in DALTON:   3 hours  3 minutes 24 seconds
  Total wall time used in DALTON:   3 hours  4 minutes 26 seconds


 QTRACE dump of internal trace stack

 ========================
      level    module
 ========================
          3    SIRIUS      
          2    DALTON      
          1    DALTON main 
 ========================

