

     ************************************************************************
     *************** Dalton - An Electronic Structure Program ***************
     ************************************************************************

    This is output from DALTON release Dalton2020.0 (2020)
         ( Web site: http://daltonprogram.org )

   ----------------------------------------------------------------------------

    NOTE:
     
    Dalton is an experimental code for the evaluation of molecular
    properties using (MC)SCF, DFT, CI, and CC wave functions.
    The authors accept no responsibility for the performance of
    the code or for the correctness of the results.
     
    The code (in whole or part) is provided under a licence and
    is not to be reproduced for further distribution without
    the written permission of the authors or their representatives.
     
    See the home page "http://daltonprogram.org" for further information.
     
    If results obtained with this code are published,
    the appropriate citations would be both of:
     
       K. Aidas, C. Angeli, K. L. Bak, V. Bakken, R. Bast,
       L. Boman, O. Christiansen, R. Cimiraglia, S. Coriani,
       P. Dahle, E. K. Dalskov, U. Ekstroem,
       T. Enevoldsen, J. J. Eriksen, P. Ettenhuber, B. Fernandez,
       L. Ferrighi, H. Fliegl, L. Frediani, K. Hald, A. Halkier,
       C. Haettig, H. Heiberg, T. Helgaker, A. C. Hennum,
       H. Hettema, E. Hjertenaes, S. Hoest, I.-M. Hoeyvik,
       M. F. Iozzi, B. Jansik, H. J. Aa. Jensen, D. Jonsson,
       P. Joergensen, J. Kauczor, S. Kirpekar,
       T. Kjaergaard, W. Klopper, S. Knecht, R. Kobayashi, H. Koch,
       J. Kongsted, A. Krapp, K. Kristensen, A. Ligabue,
       O. B. Lutnaes, J. I. Melo, K. V. Mikkelsen, R. H. Myhre,
       C. Neiss, C. B. Nielsen, P. Norman, J. Olsen,
       J. M. H. Olsen, A. Osted, M. J. Packer, F. Pawlowski,
       T. B. Pedersen, P. F. Provasi, S. Reine, Z. Rinkevicius,
       T. A. Ruden, K. Ruud, V. Rybkin, P. Salek, C. C. M. Samson,
       A. Sanchez de Meras, T. Saue, S. P. A. Sauer,
       B. Schimmelpfennig, K. Sneskov, A. H. Steindal,
       K. O. Sylvester-Hvid, P. R. Taylor, A. M. Teale,
       E. I. Tellgren, D. P. Tew, A. J. Thorvaldsen, L. Thoegersen,
       O. Vahtras, M. A. Watson, D. J. D. Wilson, M. Ziolkowski
       and H. Agren,
       "The Dalton quantum chemistry program system",
       WIREs Comput. Mol. Sci. 2014, 4:269–284 (doi: 10.1002/wcms.1172)
     
    and
     
       Dalton, a molecular electronic structure program,
       Release Dalton2020.0 (2020), see http://daltonprogram.org
   ----------------------------------------------------------------------------

    Authors in alphabetical order (Major contribution(s) in parenthesis):

  Kestutis Aidas,           Vilnius University,           Lithuania   (QM/MM)
  Celestino Angeli,         University of Ferrara,        Italy       (NEVPT2)
  Keld L. Bak,              UNI-C,                        Denmark     (AOSOPPA, non-adiabatic coupling, magnetic properties)
  Vebjoern Bakken,          University of Oslo,           Norway      (DALTON; geometry optimizer, symmetry detection)
  Radovan Bast,             UiT The Arctic U. of Norway,  Norway      (DALTON installation and execution frameworks)
  Pablo Baudin,             University of Valencia,       Spain       (Cholesky excitation energies)
  Linus Boman,              NTNU,                         Norway      (Cholesky decomposition and subsystems)
  Bruno N. Cabral Tenorio,  Technical Univ. of Denmark,   Denmark     (Lanczos-based CC methods)
  Ove Christiansen,         Aarhus University,            Denmark     (CC module)
  Renzo Cimiraglia,         University of Ferrara,        Italy       (NEVPT2)
  Sonia Coriani,            Technical Univ. of Denmark,   Denmark     (CC and RESPONS modules)
  Janusz Cukras,            University of Warsaw,         Poland      (MChD in RESPONS)
  Paal Dahle,               University of Oslo,           Norway      (Parallelization)
  Erik K. Dalskov,          UNI-C,                        Denmark     (SOPPA)
  Thomas Enevoldsen,        Univ. of Southern Denmark,    Denmark     (SOPPA)
  Janus J. Eriksen,         Aarhus University,            Denmark     (Polarizable embedding, TDA)
  Rasmus Faber,             Technical Univ. of Denmark,   Denmark     (Vib.avg. NMR w. SOPPA, parallel AO-SOPPA, CVS-CC and EOMCC)
  Tobias Fahleson,          KTH Stockholm,                Sweden      (Damped cubic response)
  Berta Fernandez,          U. of Santiago de Compostela, Spain       (Doublet spin, ESR in RESPONS)
  Lara Ferrighi,            Aarhus University,            Denmark     (PCM Cubic response)
  Heike Fliegl,             University of Oslo,           Norway      (CCSD(R12))
  Luca Frediani,            UiT The Arctic U. of Norway,  Norway      (PCM)
  Emmanuel Fromager,        Univ. Strasbourg,             France      (MC-srDFT)
  Bin Gao,                  UiT The Arctic U. of Norway,  Norway      (Gen1Int library)
  Andre S. P. Gomes,        CNRS/Universite de Lille,     France      (Frozen density embedding)
  Christof Haettig,         Ruhr-University Bochum,       Germany     (CC module)
  Kasper Hald,              Aarhus University,            Denmark     (CC module)
  Asger Halkier,            Aarhus University,            Denmark     (CC module)
  Frederik Beyer Hansen,    University of Copenhagen,     Denmark     (Parallel AO-SOPPA)
  Erik D. Hedegaard,        Univ. of Southern Denmark,    Denmark     (Polarizable embedding, QM/MM, and MC-srDFT)
  Hanne Heiberg,            University of Oslo,           Norway      (Geometry analysis, selected one-electron integrals)
  Trygve Helgaker,          University of Oslo,           Norway      (DALTON; ABACUS, ERI, DFT modules, London, and much more)
  Alf Christian Hennum,     University of Oslo,           Norway      (Parity violation)
  Hinne Hettema,            University of Auckland,       New Zealand (Quadratic response in RESPONS; SIRIUS supersymmetry)
  Eirik Hjertenaes,         NTNU,                         Norway      (Cholesky decomposition)
  Pi A. B. Haase,           University of Copenhagen,     Denmark     (Triplet AO-SOPPA)
  Maria Francesca Iozzi,    University of Oslo,           Norway      (RPA)
  Christoph Jacob           TU Braunschweig               Germany     (Frozen density embedding)
  Brano Jansik              Technical Univ. of Ostrava    Czech Rep.  (DFT cubic response)
  Hans Joergen Aa. Jensen,  Univ. of Southern Denmark,    Denmark     (DALTON; SIRIUS, RESPONS, ABACUS, MC-srDFT, and much more)
  Dan Jonsson,              UiT The Arctic U. of Norway,  Norway      (Cubic response in RESPONS module)
  Poul Joergensen,          Aarhus University,            Denmark     (RESPONS, ABACUS, and CC modules)
  Maciej Kaminski,          University of Warsaw,         Poland      (CPPh in RESPONS)
  Joanna Kauczor,           Linkoeping University,        Sweden      (Complex polarization propagator (CPP) module)
  Sheela Kirpekar,          Univ. of Southern Denmark,    Denmark     (Mass-velocity & Darwin integrals)
  Erik Kjellgren,           Univ. of Southern Denmark,    Denmark     (MC-srDFT)
  Wim Klopper,              KIT Karlsruhe,                Germany     (R12 code in CC, SIRIUS, and ABACUS modules)
  Stefan Knecht,            ETH Zurich,                   Switzerland (Parallel CI and MCSCF, MC-srDFT)
  Rika Kobayashi,           Australian National Univ.,    Australia   (DIIS in CC, London in MCSCF)
  Henrik Koch,              NTNU,                         Norway      (CC module, Cholesky decomposition)
  Jacob Kongsted,           Univ. of Southern Denmark,    Denmark     (Polarizable embedding, polarizable density embedding, QM/MM)
  Andrea Ligabue,           University of Modena,         Italy       (CTOCD, AOSOPPA)
  Nanna H. List             Univ. of Southern Denmark,    Denmark     (Polarizable embedding)
  Ola B. Lutnaes,           University of Oslo,           Norway      (DFT Hessian)
  Juan I. Melo,             University of Buenos Aires,   Argentina   (LRESC, Relativistic Effects on NMR Shieldings)
  Kurt V. Mikkelsen,        University of Copenhagen,     Denmark     (MC-SCRF and QM/MM)
  Rolf H. Myhre,            NTNU,                         Norway      (Subsystems and CC3)
  Christian Neiss,          Univ. Erlangen-Nuernberg,     Germany     (CCSD(R12))
  Christian B. Nielsen,     University of Copenhagen,     Denmark     (QM/MM)
  Patrick Norman,           KTH Stockholm,                Sweden      (Cubic response and complex frequency response in RESPONS)
  Jeppe Olsen,              Aarhus University,            Denmark     (SIRIUS CI/density modules)
  Jogvan Magnus H. Olsen,   Aarhus University,            Denmark     (Polarizable embedding and polarizable density embedding)
  Anders Osted,             Copenhagen University,        Denmark     (QM/MM)
  Martin J. Packer,         University of Sheffield,      UK          (SOPPA)
  Filip Pawlowski,          Kazimierz Wielki University,  Poland      (CC3)
  Morten N. Pedersen,       Univ. of Southern Denmark,    Denmark     (Polarizable embedding)
  Thomas B. Pedersen,       University of Oslo,           Norway      (Cholesky decomposition)
  Patricio F. Provasi,      University of Northeastern,   Argentina   (Analysis of coupling constants in localized orbitals)
  Peter Reinholdt,          Univ. of Southern Denmark,    Denmark     (Polarizable embedding and polarizable density embedding)
  Zilvinas Rinkevicius,     KTH Stockholm,                Sweden      (open-shell DFT, ESR)
  Elias Rudberg,            KTH Stockholm,                Sweden      (DFT grid and basis info)
  Torgeir A. Ruden,         University of Oslo,           Norway      (Numerical derivatives in ABACUS)
  Kenneth Ruud,             UiT The Arctic U. of Norway,  Norway      (DALTON; ABACUS magnetic properties and much more)
  Pawel Salek,              KTH Stockholm,                Sweden      (DALTON; DFT code)
  Claire C. M. Samson       University of Karlsruhe       Germany     (Boys localization, r12 integrals in ERI)
  Alfredo Sanchez de Meras, University of Valencia,       Spain       (CC module, Cholesky decomposition)
  Trond Saue,               Paul Sabatier University,     France      (direct Fock matrix construction)
  Stephan P. A. Sauer,      University of Copenhagen,     Denmark     (SOPPA(CCSD), SOPPA prop., AOSOPPA, vibrational g-factors)
  Bernd Schimmelpfennig,    Forschungszentrum Karlsruhe,  Germany     (AMFI module)
  Anna K. Schnack-Petersen, University of Copenhagen,     Denmark     (RPA(D) and HRPA(D) properties in AOSOPPA)
  Kristian Sneskov,         Aarhus University,            Denmark     (Polarizable embedding, QM/MM)
  Arnfinn H. Steindal,      UiT The Arctic U. of Norway,  Norway      (parallel QM/MM, polarizable embedding)
  Casper Steinmann,         Aalborg University,           Denmark     (QFIT, polarizable embedding)
  K. O. Sylvester-Hvid,     University of Copenhagen,     Denmark     (MC-SCRF)
  Peter R. Taylor,          VLSCI/Univ. of Melbourne,     Australia   (Symmetry handling ABACUS, integral transformation)
  Andrew M. Teale,          University of Nottingham,     England     (DFT-AC, DFT-D)
  David P. Tew,             University of Bristol,        England     (CCSD(R12))
  Julien Toulouse,          Sorbonne Univ.,               France      (MC-srDFT)
  Olav Vahtras,             KTH Stockholm,                Sweden      (Triplet response, spin-orbit, ESR, TDDFT, open-shell DFT)
  Lucas Visscher,           Vrije Universiteit Amsterdam, Netherlands (Frozen density embedding)
  David J. Wilson,          La Trobe University,          Australia   (DFT Hessian and DFT magnetizabilities)
  Hans Agren,               KTH Stockholm,                Sweden      (SIRIUS module, RESPONS, MC-SCRF solvation)
 --------------------------------------------------------------------------------

     Date and time (Linux)  : Tue May 27 22:55:00 2025
     Host name              : xm038                                   

 * Work memory size             :   131072000 = 1000.00 megabytes.

 * Directories for basis set searches:
   1) /gpfs/projects/rjh/adrian/summer2025/beta_projects/raw_data/NLO/dalton/hf/n13/dipole
   2) /gpfs/projects/rjh/adrian/dalton/build/basis


Compilation information
-----------------------

 Who compiled             | ahurtado
 Host                     | milan2
 System                   | Linux-5.14.0-427.42.1.el9_4.x86_64
 CMake generator          | Unix Makefiles
 Processor                | x86_64
 64-bit integers          | OFF
 MPI                      | ON
 Fortran compiler         | /gpfs/software/openmpi/milan/gcc13.2/4.1.6/bin/mpi
                          | f90
 Fortran compiler version | GNU Fortran (GCC) 13.2.0
 C compiler               | /gpfs/software/openmpi/milan/gcc13.2/4.1.6/bin/mpi
                          | cc
 C compiler version       | gcc (GCC) 13.2.0
 C++ compiler             | /gpfs/software/openmpi/milan/gcc13.2/4.1.6/bin/mpi
                          | cxx
 C++ compiler version     | unknown
 BLAS                     | /gpfs/software/intel/oneAPI/2024_2/mkl/2024.2/lib/
                          | intel64/libmkl_gf_lp64.so;/gpfs/software/intel/one
                          | API/2024_2/mkl/2024.2/lib/intel64/libmkl_sequentia
                          | l.so;/gpfs/software/intel/oneAPI/2024_2/mkl/2024.2
                          | /lib/intel64/libmkl_core.so;/usr/lib64/libpthread.
                          | a;/usr/lib64/libm.so
 LAPACK                   | /gpfs/software/intel/oneAPI/2024_2/mkl/2024.2/lib/
                          | intel64/libmkl_lapack95_lp64.a;/gpfs/software/inte
                          | l/oneAPI/2024_2/mkl/2024.2/lib/intel64/libmkl_gf_l
                          | p64.so
 Static linking           | OFF
 Last Git revision        | 66052b3af5ea7225e31178bf9a8b031913c72190
 Git branch               | (HEAD detached at Dalton2020.0)
 Configuration time       | 2025-04-10 16:02:31.569498

 * MPI parallel run using 576 processes.


   Content of the .dal input file
 ----------------------------------

**DALTON INPUT
.RUN RESPONSE
.DIRECT
**WAVE FUNCTIONS
.HF
**PROPERTIES
**RESPONSE
*QUADRA
.DIPLEN
.FREQUENCIES
2
0.0 0.0157
**END OF DALTON INPUT


   Content of the .mol file
 ----------------------------

BASIS
aug-cc-pVTZ
blah
blah
Atomtype=4 Angstrom Charge=0 Nosymmetry
Charge=6 Atoms=26
C_a -1.7583020021988636 -1.0203010023650265 0.0
C_b -0.4366050026429676 -0.6337210000257919 0.0
C_c 0.0 0.7351749977332912 0.0
C_d 1.3230230012268485 1.1180229989613641 0.0
C_e 1.7644539994874566 2.485270001155418 0.0
C_f 3.0888209997021927 2.863549001678212 0.0
C_g 3.5364370000340233 4.228928997879985 0.0
C_h 4.862381001254277 4.6009619980744825 0.0
C_i 5.318678000265757 5.9639239983886805 0.0
C_j 6.646634002034016 6.326845000940754 0.0
C_k 7.1159720018910715 7.686323999188499 0.0
C_l 8.446706998948253 8.034876999079117 0.0
C_m 8.937708000363315 9.388409998142839 0.0
C_n 10.273052998776057 9.710211999929031 0.0
C_o 10.804856997493873 11.049894002466123 0.0
C_p 12.151374001053597 11.300641999023139 0.0
C_q -8.70121400052949 -8.127067998427126 0.0
C_r -7.3953789979033004 -7.711870002574732 0.0
C_s -6.988771998270566 -6.328530001723197 0.0
C_t -5.6752670006092565 -5.925904002246334 0.0
C_u -5.255487002167518 -4.549206000905155 0.0
C_v -3.9377879999394994 -4.15421500197447 0.0
C_w -3.5106020023894984 -2.781228998845891 0.0
C_x -2.190510002605337 -2.3909570011926213 0.0
C_y -10.357511999395172 -9.950730000858867 0.0
C_z -9.073369002529908 -9.525026001129755 0.0
Charge=7 Atoms=2
N_a 12.743751999600235 12.534732002110225 0.0
N_b -10.679787000939353 -11.373654002265976 0.0
Charge=8 Atoms=2
O_a -11.886295001905696 -11.646209000083564 0.0
O_b -9.758822001538523 -12.193259001707236 0.0
Charge=1 Atoms=28
H_a -2.5340560018134046 -0.24059700179561624 0.0
H_b 0.33803699985638774 -1.4148860006643689 0.0
H_c -0.7732929974950549 1.5173750002029012 0.0
H_d 2.095124000596009 0.33428100055872206 0.0
H_e 0.9938920009083159 3.2701870005119478 0.0
H_f 3.8578410023483016 2.0766910014800333 0.0
H_g 2.769390997720421 5.017283998072973 0.0
H_h 5.627201998609036 3.8098829999800783 0.0
H_i 4.556570999363134 6.757031999494869 0.0
H_j 7.405249999710761 5.529587001644696 0.0
H_k 6.361358002121917 8.486479000291457 0.0
H_l 9.195025001726245 7.22752000197438 0.0
H_m 8.196295998314309 10.200475000222552 0.0
H_n 11.000552000604657 8.88356500121564 0.0
H_o 10.099687998638469 11.892268999855936 0.0
H_p 12.855938002187587 10.459505001134142 0.0
H_q -9.50211899920136 -7.3752920024976545 0.0
H_r -6.602321998896677 -8.47388900130722 0.0
H_s -7.778012999867379 -5.5631559983079715 0.0
H_t -4.889834000554602 -6.696097000264702 0.0
H_u -6.037967997735994 -3.776555001202085 0.0
H_v -3.157412997375187 -4.929573002406951 0.0
H_w -4.289116999976026 -2.0043860001577403 0.0
H_x -1.413337998569996 -3.169558000659427 0.0
H_y -11.246298002495534 -9.316888999317012 0.0
H_z -8.28369200124568 -10.285983999554848 0.0
H_{ 12.185428999358924 13.377295000287672 0.0
H_| 13.747297002472301 12.629961997386074 0.0


       *******************************************************************
       *********** Output from DALTON general input processing ***********
       *******************************************************************

 --------------------------------------------------------------------------------
   Overall default print level:    0
   Print level for DALTON.STAT:    1

    Parallel calculation using MPI
    AO-direct calculation (in sections where implemented)
    HERMIT 1- and 2-electron integral sections will be executed
    "Old" integral transformation used (limited to max 255 basis functions)
    Wave function sections will be executed (SIRIUS module)
    Dynamic molecular response properties section will be executed (RESPONSE module)
 --------------------------------------------------------------------------------


   ****************************************************************************
   *************** Output of molecule and basis set information ***************
   ****************************************************************************


    The two title cards from your ".mol" input:
    ------------------------------------------------------------------------
 1: blah                                                                    
 2: blah                                                                    
    ------------------------------------------------------------------------

  Coordinates are entered in Angstrom and converted to atomic units.
          - Conversion factor : 1 bohr = 0.52917721 A

  Atomic type no.    1
  --------------------
  Nuclear charge:   6.00000
  Number of symmetry independent centers:   26
  Number of basis sets to read;    2
  Basis set file used for this atomic type with Z =   6 :
     "/gpfs/projects/rjh/adrian/dalton/build/basis/aug-cc-pVTZ"

  Atomic type no.    2
  --------------------
  Nuclear charge:   7.00000
  Number of symmetry independent centers:    2
  Number of basis sets to read;    2
  Basis set file used for this atomic type with Z =   7 :
     "/gpfs/projects/rjh/adrian/dalton/build/basis/aug-cc-pVTZ"

  Atomic type no.    3
  --------------------
  Nuclear charge:   8.00000
  Number of symmetry independent centers:    2
  Number of basis sets to read;    2
  Basis set file used for this atomic type with Z =   8 :
     "/gpfs/projects/rjh/adrian/dalton/build/basis/aug-cc-pVTZ"

  Atomic type no.    4
  --------------------
  Nuclear charge:   1.00000
  Number of symmetry independent centers:   28
  Number of basis sets to read;    2
  Basis set file used for this atomic type with Z =   1 :
     "/gpfs/projects/rjh/adrian/dalton/build/basis/aug-cc-pVTZ"


                         SYMGRP: Point group information
                         -------------------------------

@    Point group: C1 


                                 Isotopic Masses
                                 ---------------

                           C_a        12.000000
                           C_b        12.000000
                           C_c        12.000000
                           C_d        12.000000
                           C_e        12.000000
                           C_f        12.000000
                           C_g        12.000000
                           C_h        12.000000
                           C_i        12.000000
                           C_j        12.000000
                           C_k        12.000000
                           C_l        12.000000
                           C_m        12.000000
                           C_n        12.000000
                           C_o        12.000000
                           C_p        12.000000
                           C_q        12.000000
                           C_r        12.000000
                           C_s        12.000000
                           C_t        12.000000
                           C_u        12.000000
                           C_v        12.000000
                           C_w        12.000000
                           C_x        12.000000
                           C_y        12.000000
                           C_z        12.000000
                           N_a        14.003074
                           N_b        14.003074
                           O_a        15.994915
                           O_b        15.994915
                           H_a         1.007825
                           H_b         1.007825
                           H_c         1.007825
                           H_d         1.007825
                           H_e         1.007825
                           H_f         1.007825
                           H_g         1.007825
                           H_h         1.007825
                           H_i         1.007825
                           H_j         1.007825
                           H_k         1.007825
                           H_l         1.007825
                           H_m         1.007825
                           H_n         1.007825
                           H_o         1.007825
                           H_p         1.007825
                           H_q         1.007825
                           H_r         1.007825
                           H_s         1.007825
                           H_t         1.007825
                           H_u         1.007825
                           H_v         1.007825
                           H_w         1.007825
                           H_x         1.007825
                           H_y         1.007825
                           H_z         1.007825
                           H_{         1.007825
                           H_|         1.007825

                       Total mass:   400.215078 amu
                       Natural abundance:  73.786 %

 Center-of-mass coordinates (a.u.):   -0.209225   -0.225325    0.000000
 Center-of-mass coordinates (Angs):   -0.110717   -0.119237    0.000000


  Atoms and basis sets
  --------------------

  Number of atom types :    4
  Total number of atoms:   58

  Basis set used is "aug-cc-pVTZ" from the basis set library.

  label    atoms   charge   prim   cont     basis
  ----------------------------------------------------------------------
  C_         26    6.0000    58    46      [11s6p3d2f|5s4p3d2f]                               
  N_          2    7.0000    58    46      [11s6p3d2f|5s4p3d2f]                               
  O_          2    8.0000    58    46      [11s6p3d2f|5s4p3d2f]                               
  H_         28    1.0000    25    23      [6s3p2d|4s3p2d]                                    
  ----------------------------------------------------------------------
  total:     58  214.0000  2440  2024
  ----------------------------------------------------------------------
  Spherical harmonic basis used.

  Threshold for neglecting AO integrals:  1.00D-12

  Max    interatomic separation is   35.3046 Angstrom (   66.7160 Bohr)
  between atoms   58 and   29, "H_|   " and "O_a   ".

  Min HX interatomic separation is    1.0081 Angstrom (    1.9049 Bohr)

  Min YX interatomic separation is    1.2329 Angstrom (    2.3298 Bohr)


  Bond distances (Angstrom):
  --------------------------

                  atom 1     atom 2       distance
                  ------     ------       --------
  bond distance:  C_b        C_a          1.377072
  bond distance:  C_c        C_b          1.436837
  bond distance:  C_d        C_c          1.377303
  bond distance:  C_e        C_d          1.436741
  bond distance:  C_f        C_e          1.377332
  bond distance:  C_g        C_f          1.436879
  bond distance:  C_h        C_g          1.377148
  bond distance:  C_i        C_h          1.437314
  bond distance:  C_j        C_i          1.376655
  bond distance:  C_k        C_j          1.438215
  bond distance:  C_l        C_k          1.375625
  bond distance:  C_m        C_l          1.439838
  bond distance:  C_n        C_m          1.373573
  bond distance:  C_o        C_n          1.441376
  bond distance:  C_p        C_o          1.369665
  bond distance:  C_r        C_q          1.370253
  bond distance:  C_s        C_r          1.441859
  bond distance:  C_t        C_s          1.373828
  bond distance:  C_u        C_t          1.439275
  bond distance:  C_v        C_u          1.375627
  bond distance:  C_w        C_v          1.437908
  bond distance:  C_x        C_a          1.437185
  bond distance:  C_x        C_w          1.376574
  bond distance:  C_z        C_q          1.446646
  bond distance:  C_z        C_y          1.352866
  bond distance:  N_a        C_p          1.368901
  bond distance:  N_b        C_y          1.458963
  bond distance:  O_a        N_b          1.236911
  bond distance:  O_b        N_b          1.232854
  bond distance:  H_a        C_a          1.099878
  bond distance:  H_b        C_b          1.100131
  bond distance:  H_c        C_c          1.099918
  bond distance:  H_d        C_d          1.100178
  bond distance:  H_e        C_e          1.099937
  bond distance:  H_f        C_f          1.100244
  bond distance:  H_g        C_g          1.099938
  bond distance:  H_h        C_h          1.100344
  bond distance:  H_i        C_i          1.099922
  bond distance:  H_j        C_j          1.100508
  bond distance:  H_k        C_k          1.099859
  bond distance:  H_l        C_l          1.100820
  bond distance:  H_m        C_m          1.099610
  bond distance:  H_n        C_n          1.101181
  bond distance:  H_o        C_o          1.098571
  bond distance:  H_p        C_p          1.097234
  bond distance:  H_q        C_q          1.098461
  bond distance:  H_r        C_r          1.099824
  bond distance:  H_s        C_s          1.099408
  bond distance:  H_t        C_t          1.100046
  bond distance:  H_u        C_u          1.099666
  bond distance:  H_v        C_v          1.100075
  bond distance:  H_w        C_w          1.099805
  bond distance:  H_x        C_x          1.100098
  bond distance:  H_y        C_y          1.091648
  bond distance:  H_z        C_z          1.096653
  bond distance:  H_{        N_a          1.010761
  bond distance:  H_|        N_a          1.008053


  Bond angles (degrees):
  ----------------------

                  atom 1     atom 2     atom 3         angle
                  ------     ------     ------         -----
  bond angle:     C_b        C_a        C_x          123.805
  bond angle:     C_b        C_a        H_a          118.551
  bond angle:     C_x        C_a        H_a          117.644
  bond angle:     C_a        C_b        C_c          123.993
  bond angle:     C_a        C_b        H_b          118.456
  bond angle:     C_c        C_b        H_b          117.550
  bond angle:     C_b        C_c        C_d          123.829
  bond angle:     C_b        C_c        H_c          117.638
  bond angle:     C_d        C_c        H_c          118.533
  bond angle:     C_c        C_d        C_e          124.032
  bond angle:     C_c        C_d        H_d          118.432
  bond angle:     C_e        C_d        H_d          117.535
  bond angle:     C_d        C_e        C_f          123.834
  bond angle:     C_d        C_e        H_e          117.635
  bond angle:     C_f        C_e        H_e          118.530
  bond angle:     C_e        C_f        C_g          124.092
  bond angle:     C_e        C_f        H_f          118.402
  bond angle:     C_g        C_f        H_f          117.506
  bond angle:     C_f        C_g        C_h          123.824
  bond angle:     C_f        C_g        H_g          117.634
  bond angle:     C_h        C_g        H_g          118.542
  bond angle:     C_g        C_h        C_i          124.183
  bond angle:     C_g        C_h        H_h          118.360
  bond angle:     C_i        C_h        H_h          117.457
  bond angle:     C_h        C_i        C_j          123.795
  bond angle:     C_h        C_i        H_i          117.632
  bond angle:     C_j        C_i        H_i          118.573
  bond angle:     C_i        C_j        C_k          124.332
  bond angle:     C_i        C_j        H_j          118.292
  bond angle:     C_k        C_j        H_j          117.376
  bond angle:     C_j        C_k        C_l          123.724
  bond angle:     C_j        C_k        H_k          117.631
  bond angle:     C_l        C_k        H_k          118.645
  bond angle:     C_k        C_l        C_m          124.616
  bond angle:     C_k        C_l        H_l          118.149
  bond angle:     C_m        C_l        H_l          117.235
  bond angle:     C_l        C_m        C_n          123.488
  bond angle:     C_l        C_m        H_m          117.666
  bond angle:     C_n        C_m        H_m          118.847
  bond angle:     C_m        C_n        C_o          125.200
  bond angle:     C_m        C_n        H_n          117.800
  bond angle:     C_o        C_n        H_n          116.999
  bond angle:     C_n        C_o        C_p          122.200
  bond angle:     C_n        C_o        H_o          118.415
  bond angle:     C_p        C_o        H_o          119.385
  bond angle:     C_o        C_p        N_a          126.190
  bond angle:     C_o        C_p        H_p          119.402
  bond angle:     N_a        C_p        H_p          114.408
  bond angle:     C_r        C_q        C_z          122.546
  bond angle:     C_r        C_q        H_q          119.174
  bond angle:     C_z        C_q        H_q          118.281
  bond angle:     C_q        C_r        C_s          124.018
  bond angle:     C_q        C_r        H_r          118.505
  bond angle:     C_s        C_r        H_r          117.477
  bond angle:     C_r        C_s        C_t          123.421
  bond angle:     C_r        C_s        H_s          117.741
  bond angle:     C_t        C_s        H_s          118.838
  bond angle:     C_s        C_t        C_u          123.999
  bond angle:     C_s        C_t        H_t          118.520
  bond angle:     C_u        C_t        H_t          117.481
  bond angle:     C_t        C_u        C_v          123.644
  bond angle:     C_t        C_u        H_u          117.680
  bond angle:     C_v        C_u        H_u          118.676
  bond angle:     C_u        C_v        C_w          123.969
  bond angle:     C_u        C_v        H_v          118.498
  bond angle:     C_w        C_v        H_v          117.532
  bond angle:     C_v        C_w        C_x          123.753
  bond angle:     C_v        C_w        H_w          117.656
  bond angle:     C_x        C_w        H_w          118.592
  bond angle:     C_a        C_x        C_w          123.971
  bond angle:     C_a        C_x        H_x          117.551
  bond angle:     C_w        C_x        H_x          118.478
  bond angle:     C_z        C_y        N_b          121.102
  bond angle:     C_z        C_y        H_y          126.165
  bond angle:     N_b        C_y        H_y          112.733
  bond angle:     C_q        C_z        C_y          123.248
  bond angle:     C_q        C_z        H_z          119.032
  bond angle:     C_y        C_z        H_z          117.720
  bond angle:     C_p        N_a        H_{          120.828
  bond angle:     C_p        N_a        H_|          121.062
  bond angle:     H_{        N_a        H_|          118.110
  bond angle:     C_y        N_b        O_a          115.491
  bond angle:     C_y        N_b        O_b          118.906
  bond angle:     O_a        N_b        O_b          125.603




 Principal moments of inertia (u*A**2) and principal axes
 --------------------------------------------------------

   IA     148.143465          0.703374    0.710820    0.000000
   IB   46570.622979          0.710820   -0.703374    0.000000
   IC   46718.766444          0.000000    0.000000    1.000000


 Rotational constants
 --------------------

@    The molecule is planar.

               A                   B                   C

           3411.4161             10.8519             10.8175 MHz
            0.113793            0.000362            0.000361 cm-1


@  Nuclear repulsion energy : 1902.014739146232 Hartree


                     .---------------------------------------.
                     | Starting in Integral Section (HERMIT) |
                     `---------------------------------------'



 ***************************************************************************************
 ****************** Output from **INTEGRALS input processing (HERMIT) ******************
 ***************************************************************************************


 - Using defaults, no **INTEGRALS input found

 Default print level:        1

 Calculation of one-electron Hamiltonian integrals.

 Center of mass  (bohr):     -0.209224920491     -0.225324994836      0.000000000000
 Operator center (bohr):      0.000000000000      0.000000000000      0.000000000000
 Gauge origin    (bohr):      0.000000000000      0.000000000000      0.000000000000
 Dipole origin   (bohr):      0.000000000000      0.000000000000      0.000000000000


     ************************************************************************
     ************************** Output from HERINT **************************
     ************************************************************************



                      Nuclear contribution to dipole moments
                      --------------------------------------

                 au               Debye          C m (/(10**-30)

      x     -0.00000204        -0.00000519        -0.00001730
      y      0.00000730         0.00001855         0.00006189
      z      0.00000000         0.00000000         0.00000000


  Time used in ONEDRV     is       7.00 seconds
  Time used in HUCKEL     is       1.50 seconds
  Time used in OVERLAP    is       0.80 seconds
  Time used in POPOVLP    is       1.55 seconds
  Time used in R2         is       0.95 seconds
  Time used in R4         is       1.10 seconds
  Time used in DIPLEN     is       1.38 seconds
  Time used in QUADRUP    is       2.66 seconds
  Time used in KINENE     is       1.25 seconds
  Time used in GABGEN     is       7.58 seconds
  Total CPU  time used in HERMIT:  25.78 seconds
  Total wall time used in HERMIT:  25.94 seconds


                        .----------------------------------.
                        | End of Integral Section (HERMIT) |
                        `----------------------------------'



                   .--------------------------------------------.
                   | Starting in Wave Function Section (SIRIUS) |
                   `--------------------------------------------'



@ Primary orbitals are deleted during canonical orthonormalization
@   because of detected numerical linear dependence or too large coefficients.
@ Eigenvalue threshold for num. lin. dep. =  1.00D-06

@  12 MO components are deleted in symmetry    1
 Overlap eigenvalues of the deleted orbitals:
  8.83D-07  8.79D-07  8.47D-07  7.84D-07  7.02D-07
  5.65D-07  5.00D-07  4.44D-07  4.13D-07  2.53D-07
  1.28D-07  3.58D-08

 Max MO coeff. of last deleted MO & limit:  2.57D+02  1.00D+03

WARNING: Orbitals have been deleted because of numerical
   linear dependence although not requested in input.

 *** Output from Huckel module :

     Using EWMO model:          T
     Using EHT  model:          F
     Number of Huckel orbitals each symmetry:  178

 EWMO - Energy Weighted Maximum Overlap - is a Huckel type method,
        which normally is better than Extended Huckel Theory.
 Reference: Linderberg and Ohrn, Propagators in Quantum Chemistry (Wiley, 1973)

 Huckel EWMO eigenvalues for symmetry :  1
          -20.684753     -20.683497     -15.677080     -15.674961     -11.359404
          -11.359365     -11.359184     -11.359064     -11.358855     -11.358810
          -11.358234     -11.357311     -11.356156     -11.354849     -11.353477
          -11.352135     -11.350960     -11.348614     -11.347868     -11.347103
          -11.346452     -11.345949     -11.345603     -11.345492     -11.345423
          -11.345399     -11.345297     -11.345276     -11.345189     -11.345186
           -1.964018      -1.792796      -1.789984      -1.782779      -1.768251
           -1.743648      -1.706915      -1.657309      -1.595577      -1.523908
           -1.453302      -1.434018      -1.357003      -1.270982      -1.211334
           -1.190833      -1.185339      -1.157595      -1.118868      -1.097806
           -1.068382      -1.014478      -1.014053      -0.957876      -0.940668
           -0.900946      -0.875538      -0.852017      -0.847595      -0.824641
           -0.813952      -0.783946      -0.768225      -0.749488      -0.743965
           -0.739485      -0.712990      -0.694160      -0.677906      -0.677145
           -0.657331      -0.641999      -0.638160      -0.621252      -0.601881
           -0.597783      -0.589179      -0.585328      -0.560978      -0.556184
           -0.551679      -0.537864      -0.529388      -0.515984      -0.512235
           -0.510069      -0.497873      -0.494645      -0.491708      -0.490432
           -0.485875      -0.484707      -0.478950      -0.478471      -0.477421
           -0.476147      -0.474461      -0.473900      -0.446470      -0.441362
           -0.417824      -0.408465      -0.393259      -0.379179      -0.374507
           -0.362710      -0.353825      -0.335893      -0.305861      -0.285770
           -0.267781      -0.252161      -0.238848      -0.229131      -0.227701
           -0.218538      -0.211157      -0.205347      -0.200907      -0.200900
           -0.197656      -0.195443      -0.194159      -0.190593      -0.166745
           -0.142716      -0.139014      -0.135399      -0.132960      -0.131698
           -0.131513      -0.130879      -0.130156      -0.129971      -0.129786
           -0.129654      -0.129161      -0.128919      -0.128447      -0.127890
           -0.127345      -0.127221      -0.126533      -0.126340      -0.126260
           -0.125804      -0.125091      -0.124899      -0.124231      -0.123907
           -0.123616      -0.123183      -0.112560      -0.112184      -0.108954
           -0.107865      -0.104736      -0.103015      -0.100749      -0.098365
           -0.096598      -0.094649      -0.093050      -0.091766      -0.090072
           -0.089493      -0.087921      -0.087538      -0.086389      -0.086007
           -0.085117      -0.085055      -0.083916      -0.082759      -0.081627
           -0.080582      -0.079757      -0.079336

 **********************************************************************
 *SIRIUS* a direct, restricted step, second order MCSCF program       *
 **********************************************************************

 
     Date and time (Linux)  : Tue May 27 23:03:12 2025
     Host name              : xm038                                   

 Title lines from ".mol" input file:
     blah                                                                    
     blah                                                                    

 Print level on unit LUPRI =   2 is   0
 Print level on unit LUW4  =   2 is   5

@    Restricted, closed shell Hartree-Fock calculation.

@    Time-dependent Hartree-Fock calculation (random phase approximation).
 Fock matrices are calculated directly and in parallel without use of integrals on disk.

 Initial molecular orbitals are obtained according to
 ".MOSTART EWMO  " input option

     Wave function specification
     ============================
@    Wave function type        --- HF ---
@    Number of closed shell electrons         214
@    Number of electrons in active shells       0
@    Total charge of the molecule               0

@    Spin multiplicity and 2 M_S                1         0
@    Total number of symmetries                 1 (point group: C1 )
@    Reference state symmetry                   1 (irrep name : A  )

     Orbital specifications
     ======================
@    Abelian symmetry species          All |    1
@                                          |  A  
                                       --- |  ---
@    Occupied SCF orbitals             107 |  107
@    Secondary orbitals               1905 | 1905
@    Total number of orbitals         2012 | 2012
@    Number of basis functions        2024 | 2024

     Optimization information
     ========================
@    Number of configurations                 1
@    Number of orbital rotations         203835
     ------------------------------------------
@    Total number of variables           203836

     Maximum number of Fock   iterations      0
     Maximum number of DIIS   iterations     60
     Maximum number of QC-SCF iterations     60
     Threshold for SCF convergence     1.00D-05

    INFORMATION: Switched to "new" integral transformation (from 1988 ;-) )
    because more than 255 basis functions.


 ***********************************************
 ***** DIIS acceleration of SCF iterations *****
 ***********************************************

 C1-DIIS algorithm; max error vectors =    8

 Iter      Total energy        Error norm    Delta(E)  DIIS dim.
 -----------------------------------------------------------------------------
   1  Screening settings (-IFTHRS, JTDIIS, DIFDEN, times)  -10    1    T  4.49D+01  4.51D+01
@  1    -1254.91778395        8.48440D+00   -1.25D+03    1
      Virial theorem: -V/T =      2.012272
@    MULPOP   C_a     0.02; C_b     0.03; C_c    -0.01; C_d     0.03; C_e    -0.02; C_f     0.06; C_g     0.01; C_h     0.06; C_i    -0.01; C_j     0.06; 
@             C_k    -0.04; C_l     0.02; C_m    -0.16; C_n    -0.06; C_o    -0.07; C_p     0.32; C_q    -0.05; C_r    -0.03; C_s    -0.02; C_t     0.06; 
@             C_u     0.02; C_v     0.08; C_w     0.02; C_x     0.06; C_y     0.18; C_z    -0.05; N_a    -0.71; N_b     0.62; O_a    -0.91; O_b    -0.96; 
@    MULPOP    dipole moment & components:     36.0833;       23.6290     27.2704      0.0000
   1  Level shift: doubly occupied orbital energies shifted by -2.00D-01
 -----------------------------------------------------------------------------
   2  Screening settings (-IFTHRS, JTDIIS, DIFDEN, times)  -10    2    T  4.20D+01  4.22D+01
@  2    -1259.01364530        3.11972D+00   -4.10D+00    2
      Virial theorem: -V/T =      2.000396
@    MULPOP   C_a    -0.07; C_b    -0.06; C_c    -0.06; C_d    -0.03; C_e    -0.08; C_f    -0.05; C_g    -0.09; C_h    -0.12; C_i    -0.12; C_j    -0.06; 
@             C_k    -0.05; C_l     0.02; C_m    -0.01; C_n     0.02; C_o     0.16; C_p    -0.51; C_q    -0.08; C_r     0.10; C_s    -0.04; C_t    -0.06; 
@             C_u    -0.08; C_v    -0.13; C_w    -0.15; C_x    -0.08; C_y    -0.86; C_z     0.22; N_a    -0.55; N_b     0.26; O_a    -0.18; O_b    -0.34; 
@    MULPOP    dipole moment & components:     12.5302;        8.8086      8.9115      0.0000
   2  Level shift: doubly occupied orbital energies shifted by -1.00D-01
 -----------------------------------------------------------------------------
   3  Screening settings (-IFTHRS, JTDIIS, DIFDEN, times)  -10    3    T  4.02D+01  4.04D+01
@  3    -1259.51963352        1.12710D+00   -5.06D-01    3
      Virial theorem: -V/T =      2.001911
@    MULPOP   C_a    -0.11; C_b    -0.07; C_c    -0.09; C_d    -0.06; C_e    -0.11; C_f    -0.08; C_g    -0.12; C_h    -0.15; C_i    -0.17; C_j    -0.11; 
@             C_k    -0.10; C_l    -0.00; C_m    -0.09; C_n     0.06; C_o     0.03; C_p    -0.40; C_q    -0.06; C_r     0.09; C_s    -0.08; C_t    -0.07; 
@             C_u    -0.12; C_v    -0.14; C_w    -0.17; C_x    -0.09; C_y    -0.61; C_z     0.23; N_a    -0.54; N_b     0.94; O_a    -0.77; O_b    -0.73; 
@    MULPOP    dipole moment & components:     10.7186;        7.4542      7.7022      0.0000
   3  Level shift: doubly occupied orbital energies shifted by -5.00D-02
 -----------------------------------------------------------------------------
   4  Screening settings (-IFTHRS, JTDIIS, DIFDEN, times)  -10    4    T  3.89D+01  3.91D+01
@  4    -1259.59852431        3.28910D-01   -7.89D-02    4
      Virial theorem: -V/T =      2.003461
@    MULPOP   C_a    -0.11; C_b    -0.07; C_c    -0.10; C_d    -0.06; C_e    -0.11; C_f    -0.08; C_g    -0.13; C_h    -0.14; C_i    -0.18; C_j    -0.11; 
@             C_k    -0.11; C_l    -0.00; C_m    -0.10; C_n     0.06; C_o    -0.00; C_p    -0.38; C_q    -0.09; C_r     0.11; C_s    -0.10; C_t    -0.06; 
@             C_u    -0.13; C_v    -0.14; C_w    -0.18; C_x    -0.09; C_y    -0.67; C_z     0.21; N_a    -0.55; N_b     0.73; O_a    -0.62; O_b    -0.66; 
@    MULPOP    dipole moment & components:      9.1973;        6.5203      6.4866      0.0000
   4  Level shift: doubly occupied orbital energies shifted by -2.50D-02
 -----------------------------------------------------------------------------
   5  Screening settings (-IFTHRS, JTDIIS, DIFDEN, times)  -14    5    F  5.11D+01  5.14D+01
@  5    -1259.61489149        1.38775D-01   -1.64D-02    5
      Virial theorem: -V/T =      2.002752
@    MULPOP   C_a    -0.13; C_b    -0.08; C_c    -0.11; C_d    -0.06; C_e    -0.13; C_f    -0.09; C_g    -0.14; C_h    -0.15; C_i    -0.18; C_j    -0.12; 
@             C_k    -0.12; C_l    -0.01; C_m    -0.11; C_n     0.06; C_o    -0.01; C_p    -0.39; C_q    -0.10; C_r     0.09; C_s    -0.11; C_t    -0.08; 
@             C_u    -0.15; C_v    -0.15; C_w    -0.19; C_x    -0.10; C_y    -0.65; C_z     0.19; N_a    -0.57; N_b     0.78; O_a    -0.66; O_b    -0.66; 
@    MULPOP    dipole moment & components:      8.3091;        6.0198      5.7274      0.0000
   5  Level shift: doubly occupied orbital energies shifted by -1.25D-02
 -----------------------------------------------------------------------------
   6  Screening settings (-IFTHRS, JTDIIS, DIFDEN, times)  -14    6    T  4.76D+01  4.80D+01
@  6    -1259.61988363        7.39728D-02   -4.99D-03    6
      Virial theorem: -V/T =      2.002630
@    MULPOP   C_a    -0.13; C_b    -0.08; C_c    -0.11; C_d    -0.07; C_e    -0.13; C_f    -0.09; C_g    -0.14; C_h    -0.15; C_i    -0.19; C_j    -0.12; 
@             C_k    -0.12; C_l    -0.01; C_m    -0.11; C_n     0.05; C_o    -0.01; C_p    -0.39; C_q    -0.10; C_r     0.10; C_s    -0.11; C_t    -0.08; 
@             C_u    -0.15; C_v    -0.15; C_w    -0.19; C_x    -0.10; C_y    -0.67; C_z     0.20; N_a    -0.57; N_b     0.77; O_a    -0.64; O_b    -0.67; 
@    MULPOP    dipole moment & components:      7.7679;        5.6340      5.3477      0.0000
   6  Level shift: doubly occupied orbital energies shifted by -1.25D-02
 -----------------------------------------------------------------------------
   7  Screening settings (-IFTHRS, JTDIIS, DIFDEN, times)  -14    7    T  4.70D+01  4.71D+01
@  7    -1259.62162615        3.59114D-02   -1.74D-03    7
      Virial theorem: -V/T =      2.002662
@    MULPOP   C_a    -0.13; C_b    -0.08; C_c    -0.11; C_d    -0.07; C_e    -0.12; C_f    -0.09; C_g    -0.14; C_h    -0.15; C_i    -0.18; C_j    -0.12; 
@             C_k    -0.12; C_l    -0.01; C_m    -0.11; C_n     0.05; C_o    -0.01; C_p    -0.40; C_q    -0.10; C_r     0.10; C_s    -0.11; C_t    -0.07; 
@             C_u    -0.15; C_v    -0.15; C_w    -0.19; C_x    -0.10; C_y    -0.67; C_z     0.20; N_a    -0.58; N_b     0.77; O_a    -0.65; O_b    -0.66; 
@    MULPOP    dipole moment & components:      7.4095;        5.4166      5.0558      0.0000
 -----------------------------------------------------------------------------
   8  Screening settings (-IFTHRS, JTDIIS, DIFDEN, times)  -14    8    T  4.64D+01  4.67D+01
@  8    -1259.62208182        1.59756D-02   -4.56D-04    8
      Virial theorem: -V/T =      2.002654
@    MULPOP   C_a    -0.12; C_b    -0.08; C_c    -0.11; C_d    -0.07; C_e    -0.12; C_f    -0.09; C_g    -0.14; C_h    -0.15; C_i    -0.18; C_j    -0.12; 
@             C_k    -0.12; C_l    -0.01; C_m    -0.11; C_n     0.05; C_o    -0.01; C_p    -0.40; C_q    -0.10; C_r     0.10; C_s    -0.11; C_t    -0.07; 
@             C_u    -0.15; C_v    -0.15; C_w    -0.19; C_x    -0.10; C_y    -0.67; C_z     0.20; N_a    -0.58; N_b     0.77; O_a    -0.65; O_b    -0.66; 
@    MULPOP    dipole moment & components:      7.0898;        5.1781      4.8428      0.0000
 -----------------------------------------------------------------------------
   9  Screening settings (-IFTHRS, JTDIIS, DIFDEN, times)  -14    9    T  4.53D+01  4.56D+01
@  9    -1259.62214532        6.44417D-03   -6.35D-05    8
      Virial theorem: -V/T =      2.002646
@    MULPOP   C_a    -0.12; C_b    -0.08; C_c    -0.11; C_d    -0.07; C_e    -0.12; C_f    -0.09; C_g    -0.14; C_h    -0.15; C_i    -0.18; C_j    -0.12; 
@             C_k    -0.12; C_l    -0.01; C_m    -0.11; C_n     0.05; C_o    -0.01; C_p    -0.40; C_q    -0.10; C_r     0.10; C_s    -0.11; C_t    -0.07; 
@             C_u    -0.15; C_v    -0.15; C_w    -0.19; C_x    -0.10; C_y    -0.67; C_z     0.20; N_a    -0.58; N_b     0.77; O_a    -0.65; O_b    -0.66; 
@    MULPOP    dipole moment & components:      6.9446;        5.0692      4.7467      0.0000
 -----------------------------------------------------------------------------
  10  Screening settings (-IFTHRS, JTDIIS, DIFDEN, times)  -14   10    T  4.46D+01  4.50D+01
@ 10    -1259.62216334        3.92830D-03   -1.80D-05    8
      Virial theorem: -V/T =      2.002647
@    MULPOP   C_a    -0.12; C_b    -0.08; C_c    -0.11; C_d    -0.07; C_e    -0.12; C_f    -0.09; C_g    -0.14; C_h    -0.16; C_i    -0.18; C_j    -0.12; 
@             C_k    -0.12; C_l    -0.01; C_m    -0.11; C_n     0.05; C_o    -0.01; C_p    -0.40; C_q    -0.10; C_r     0.10; C_s    -0.11; C_t    -0.07; 
@             C_u    -0.15; C_v    -0.15; C_w    -0.19; C_x    -0.10; C_y    -0.67; C_z     0.20; N_a    -0.58; N_b     0.77; O_a    -0.65; O_b    -0.66; 
@    MULPOP    dipole moment & components:      6.8270;        4.9714      4.6789      0.0000
 -----------------------------------------------------------------------------
  11  Screening settings (-IFTHRS, JTDIIS, DIFDEN, times)  -14   11    T  4.40D+01  4.42D+01
@ 11    -1259.62217150        2.48962D-03   -8.16D-06    8
      Virial theorem: -V/T =      2.002648
@    MULPOP   C_a    -0.12; C_b    -0.08; C_c    -0.11; C_d    -0.07; C_e    -0.12; C_f    -0.09; C_g    -0.14; C_h    -0.16; C_i    -0.18; C_j    -0.12; 
@             C_k    -0.12; C_l    -0.01; C_m    -0.11; C_n     0.05; C_o    -0.01; C_p    -0.40; C_q    -0.10; C_r     0.10; C_s    -0.11; C_t    -0.07; 
@             C_u    -0.15; C_v    -0.15; C_w    -0.19; C_x    -0.10; C_y    -0.67; C_z     0.20; N_a    -0.58; N_b     0.77; O_a    -0.65; O_b    -0.66; 
@    MULPOP    dipole moment & components:      6.7341;        4.8933      4.6264      0.0000
 -----------------------------------------------------------------------------
  12  Screening settings (-IFTHRS, JTDIIS, DIFDEN, times)  -14   12    T  4.39D+01  4.41D+01
@ 12    -1259.62217536        9.55351D-04   -3.86D-06    8
      Virial theorem: -V/T =      2.002646
@    MULPOP   C_a    -0.12; C_b    -0.08; C_c    -0.10; C_d    -0.07; C_e    -0.12; C_f    -0.09; C_g    -0.14; C_h    -0.16; C_i    -0.18; C_j    -0.12; 
@             C_k    -0.12; C_l    -0.01; C_m    -0.11; C_n     0.05; C_o    -0.01; C_p    -0.40; C_q    -0.10; C_r     0.10; C_s    -0.11; C_t    -0.07; 
@             C_u    -0.15; C_v    -0.15; C_w    -0.19; C_x    -0.10; C_y    -0.66; C_z     0.20; N_a    -0.58; N_b     0.77; O_a    -0.65; O_b    -0.66; 
@    MULPOP    dipole moment & components:      6.6455;        4.8182      4.5769      0.0000
 -----------------------------------------------------------------------------
  13  Screening settings (-IFTHRS, JTDIIS, DIFDEN, times)  -14   13    T  4.30D+01  4.32D+01
@ 13    -1259.62217590        4.06102D-04   -5.39D-07    8
      Virial theorem: -V/T =      2.002647
@    MULPOP   C_a    -0.12; C_b    -0.08; C_c    -0.10; C_d    -0.07; C_e    -0.12; C_f    -0.09; C_g    -0.14; C_h    -0.16; C_i    -0.18; C_j    -0.13; 
@             C_k    -0.12; C_l    -0.01; C_m    -0.11; C_n     0.05; C_o    -0.01; C_p    -0.40; C_q    -0.10; C_r     0.10; C_s    -0.11; C_t    -0.07; 
@             C_u    -0.15; C_v    -0.15; C_w    -0.19; C_x    -0.10; C_y    -0.66; C_z     0.20; N_a    -0.58; N_b     0.77; O_a    -0.65; O_b    -0.66; 
@    MULPOP    dipole moment & components:      6.6103;        4.7881      4.5574      0.0000
 -----------------------------------------------------------------------------
  14  Screening settings (-IFTHRS, JTDIIS, DIFDEN, times)  -14   14    T  4.13D+01  4.16D+01
@ 14    -1259.62217595        2.04011D-04   -5.09D-08    8
      Virial theorem: -V/T =      2.002646
@    MULPOP   C_a    -0.12; C_b    -0.08; C_c    -0.10; C_d    -0.07; C_e    -0.12; C_f    -0.09; C_g    -0.14; C_h    -0.16; C_i    -0.18; C_j    -0.13; 
@             C_k    -0.12; C_l    -0.01; C_m    -0.11; C_n     0.05; C_o    -0.01; C_p    -0.40; C_q    -0.10; C_r     0.10; C_s    -0.11; C_t    -0.07; 
@             C_u    -0.15; C_v    -0.15; C_w    -0.19; C_x    -0.10; C_y    -0.66; C_z     0.20; N_a    -0.58; N_b     0.77; O_a    -0.65; O_b    -0.66; 
@    MULPOP    dipole moment & components:      6.6024;        4.7813      4.5530      0.0000
 -----------------------------------------------------------------------------
  15  Screening settings (-IFTHRS, JTDIIS, DIFDEN, times)  -14   15    T  4.03D+01  4.05D+01
@ 15    -1259.62217596        9.34125D-05   -1.09D-08    8
      Virial theorem: -V/T =      2.002646
@    MULPOP   C_a    -0.12; C_b    -0.08; C_c    -0.10; C_d    -0.07; C_e    -0.12; C_f    -0.09; C_g    -0.14; C_h    -0.16; C_i    -0.18; C_j    -0.13; 
@             C_k    -0.12; C_l    -0.01; C_m    -0.11; C_n     0.05; C_o    -0.01; C_p    -0.40; C_q    -0.10; C_r     0.10; C_s    -0.11; C_t    -0.07; 
@             C_u    -0.15; C_v    -0.15; C_w    -0.19; C_x    -0.10; C_y    -0.66; C_z     0.20; N_a    -0.58; N_b     0.77; O_a    -0.65; O_b    -0.66; 
@    MULPOP    dipole moment & components:      6.5991;        4.7786      4.5512      0.0000
 -----------------------------------------------------------------------------
  16  Screening settings (-IFTHRS, JTDIIS, DIFDEN, times)  -14   16    T  3.90D+01  3.92D+01
@ 16    -1259.62217596        4.22566D-05   -1.54D-09    8
      Virial theorem: -V/T =      2.002646
@    MULPOP   C_a    -0.12; C_b    -0.08; C_c    -0.10; C_d    -0.07; C_e    -0.12; C_f    -0.09; C_g    -0.14; C_h    -0.16; C_i    -0.18; C_j    -0.13; 
@             C_k    -0.12; C_l    -0.01; C_m    -0.11; C_n     0.05; C_o    -0.01; C_p    -0.40; C_q    -0.10; C_r     0.10; C_s    -0.11; C_t    -0.07; 
@             C_u    -0.15; C_v    -0.15; C_w    -0.19; C_x    -0.10; C_y    -0.66; C_z     0.20; N_a    -0.58; N_b     0.77; O_a    -0.65; O_b    -0.66; 
@    MULPOP    dipole moment & components:      6.5985;        4.7781      4.5509      0.0000
 -----------------------------------------------------------------------------
  17  Screening settings (-IFTHRS, JTDIIS, DIFDEN, times)  -14   17    T  3.86D+01  3.88D+01
@ 17    -1259.62217596        2.84281D-05   -5.53D-10    8
      Virial theorem: -V/T =      2.002646
@    MULPOP   C_a    -0.12; C_b    -0.08; C_c    -0.10; C_d    -0.07; C_e    -0.12; C_f    -0.09; C_g    -0.14; C_h    -0.16; C_i    -0.18; C_j    -0.13; 
@             C_k    -0.12; C_l    -0.01; C_m    -0.11; C_n     0.05; C_o    -0.01; C_p    -0.40; C_q    -0.10; C_r     0.10; C_s    -0.11; C_t    -0.07; 
@             C_u    -0.15; C_v    -0.15; C_w    -0.19; C_x    -0.10; C_y    -0.66; C_z     0.20; N_a    -0.58; N_b     0.77; O_a    -0.65; O_b    -0.66; 
@    MULPOP    dipole moment & components:      6.5982;        4.7778      4.5507      0.0000
 -----------------------------------------------------------------------------
  18  Screening settings (-IFTHRS, JTDIIS, DIFDEN, times)  -14   18    T  3.86D+01  3.87D+01
@ 18    -1259.62217596        1.27643D-05   -1.76D-10    8
      Virial theorem: -V/T =      2.002646
@    MULPOP   C_a    -0.12; C_b    -0.08; C_c    -0.10; C_d    -0.07; C_e    -0.12; C_f    -0.09; C_g    -0.14; C_h    -0.16; C_i    -0.18; C_j    -0.13; 
@             C_k    -0.12; C_l    -0.01; C_m    -0.11; C_n     0.05; C_o    -0.01; C_p    -0.40; C_q    -0.10; C_r     0.10; C_s    -0.11; C_t    -0.07; 
@             C_u    -0.15; C_v    -0.15; C_w    -0.19; C_x    -0.10; C_y    -0.66; C_z     0.20; N_a    -0.58; N_b     0.77; O_a    -0.65; O_b    -0.66; 
@    MULPOP    dipole moment & components:      6.5980;        4.7777      4.5506      0.0000
 -----------------------------------------------------------------------------
  19  Screening settings (-IFTHRS, JTDIIS, DIFDEN, times)  -14   19    T  3.86D+01  3.88D+01
@ 19    -1259.62217596        5.97560D-06   -4.59D-11    8

@ *** DIIS converged in  19 iterations !
@     Converged SCF energy, gradient:  -1259.622175962478    5.98D-06
    - total time used in SIRFCK :              0.00 seconds


 *** SCF orbital energy analysis ***

 Only the 20 lowest virtual orbital energies printed in each symmetry.

 Number of electrons :  214
 Orbital occupations :  107

 Sym       Hartree-Fock orbital energies

1 A     -20.58814607   -20.58528441   -15.83844248   -15.59117685   -11.30109724
        -11.29035903   -11.28880332   -11.27913462   -11.27113536   -11.26532800
        -11.26081295   -11.26067524   -11.25716083   -11.25644394   -11.25409876
        -11.25386561   -11.25144111   -11.25131946   -11.25088834   -11.24908122
        -11.24882017   -11.24706577   -11.24629794   -11.24606804   -11.24363491
        -11.24067496   -11.23721170   -11.23300792   -11.22823004   -11.22578884
         -1.57847893    -1.37637780    -1.23601309    -1.14422113    -1.12986068
         -1.12104994    -1.11315763    -1.10410647    -1.09266750    -1.07876527
         -1.06257613    -1.04424329    -1.02389143    -1.00164959    -0.97768635
         -0.95266645    -0.93571226    -0.89182814    -0.86463798    -0.83777749
         -0.81338737    -0.79462056    -0.78598666    -0.77955093    -0.77366871
         -0.76812162    -0.76238481    -0.75973969    -0.74986034    -0.74789697
         -0.73548950    -0.71596580    -0.71212789    -0.69626559    -0.67955034
         -0.67463225    -0.67021940    -0.65802155    -0.64948576    -0.63914352
         -0.63081846    -0.61517545    -0.61246635    -0.59984459    -0.58799353
         -0.58226053    -0.56929852    -0.56329094    -0.55654359    -0.54586690
         -0.54419616    -0.53656455    -0.52920450    -0.52845089    -0.52373045
         -0.52270812    -0.51732420    -0.51246171    -0.50766654    -0.50284607
         -0.50026665    -0.49620141    -0.48856939    -0.48097705    -0.47869226
         -0.47860946    -0.46648657    -0.45080447    -0.43945674    -0.43156335
         -0.40897875    -0.38307821    -0.35404367    -0.32223525    -0.28846086
         -0.25446981    -0.22308443     0.00264046     0.01622027     0.02276042
          0.02454234     0.02535488     0.02837739     0.02914639     0.03285161
          0.03301760     0.03544183     0.03819155     0.04285552     0.04600431
          0.05138913     0.05506366     0.06065643     0.06548368     0.06561638
          0.07102173     0.07688540

    E(LUMO) :     0.00264046 au (symmetry 1)
  - E(HOMO) :    -0.22308443 au (symmetry 1)
  ------------------------------------------
    gap     :     0.22572489 au

 --- Writing SIRIFC interface file

 CPU and wall time for SCF :    2029.324    2041.008


                       .-----------------------------------.
                       | --- Final results from SIRIUS --- |
                       `-----------------------------------'


@    Spin multiplicity:           1
@    Spatial symmetry:            1 ( irrep  A   in C1  )
@    Total charge of molecule:    0

@    Final HF energy:           -1259.622175962478                 
@    Nuclear repulsion:          1902.014739146232
@    Electronic energy:         -3161.636915108711

@    Final gradient norm:           0.000005975604

 
     Date and time (Linux)  : Tue May 27 23:37:30 2025
     Host name              : xm038                                   

File label for MO orbitals:  27May25   FOCKDIIS

 (Only coefficients > 0.0100 are printed.)

 Molecular orbitals for symmetry species 1  (A  )
 ------------------------------------------------

    Orbital        98       99      100      101      102      103      104
   8 C_a :2pz   -0.2059  -0.0019   0.1277  -0.1217  -0.2084  -0.0014   0.2142
  14 C_a :2pz   -0.0006   0.0003  -0.0030  -0.0066  -0.0026  -0.0060   0.0105
  17 C_a :2pz   -0.0042   0.0030   0.0023  -0.0043  -0.0078  -0.0008   0.0140
  26 C_a :3d1+  -0.0088  -0.0005   0.0000  -0.0107  -0.0052  -0.0096   0.0109
  31 C_a :3d1+  -0.0006   0.0002   0.0107   0.0017  -0.0041   0.0008   0.0062
  54 C_b :2pz   -0.2068  -0.0096   0.0171  -0.2005  -0.1190  -0.1435   0.1873
  63 C_b :2pz   -0.0040  -0.0013   0.0010  -0.0052  -0.0051  -0.0062   0.0131
  72 C_b :3d1+   0.0086  -0.0000  -0.0070   0.0048   0.0122  -0.0020  -0.0129
  75 C_b :3d1-  -0.0046   0.0006   0.0113  -0.0024  -0.0053  -0.0008   0.0036
 100 C_c :2pz   -0.1283  -0.0163  -0.1528  -0.1698   0.1217  -0.1895  -0.1043
 118 C_c :3d1+  -0.0012  -0.0006  -0.0098  -0.0017   0.0117  -0.0022  -0.0130
 121 C_c :3d1-  -0.0077   0.0003   0.0116   0.0001  -0.0057   0.0025   0.0037
 146 C_d :2pz   -0.0365  -0.0151  -0.2085  -0.0579   0.2052  -0.0655  -0.2023
 155 C_d :2pz   -0.0009   0.0011  -0.0045  -0.0024   0.0069  -0.0039  -0.0138
 164 C_d :3d1+   0.0059   0.0007   0.0063   0.0097  -0.0050   0.0122   0.0048
 167 C_d :3d1-  -0.0101  -0.0008   0.0007  -0.0087   0.0050  -0.0040  -0.0015
 192 C_e :2pz    0.1095  -0.0063  -0.1795   0.1459   0.1411   0.1894  -0.0769
 210 C_e :3d1+   0.0077   0.0001  -0.0033   0.0108  -0.0014   0.0119   0.0067
 213 C_e :3d1-  -0.0104  -0.0009   0.0002  -0.0090   0.0018  -0.0060   0.0008
 238 C_f :2pz    0.1809   0.0019  -0.0892   0.2107   0.0036   0.2110   0.0828
 247 C_f :2pz    0.0032  -0.0011  -0.0024   0.0054   0.0011   0.0102   0.0056
 256 C_f :3d1+  -0.0040   0.0003   0.0090  -0.0061  -0.0092  -0.0100   0.0068
 284 C_g :2pz    0.2218   0.0130   0.0868   0.1598  -0.2001   0.0105   0.2084
 293 C_g :2pz    0.0042   0.0003   0.0026   0.0036  -0.0073  -0.0003   0.0132
 302 C_g :3d1+   0.0079   0.0007   0.0086   0.0008  -0.0109  -0.0092   0.0044
 330 C_h :2pz    0.1922   0.0164   0.1761   0.0433  -0.2104  -0.1356   0.0959
 346 C_h :3d1-   0.0020   0.0004   0.0071  -0.0069   0.0001  -0.0083  -0.0104
 348 C_h :3d1+  -0.0091  -0.0005  -0.0027  -0.0093   0.0100  -0.0028  -0.0137
 351 C_h :3d1-   0.0119   0.0002   0.0008   0.0060  -0.0038   0.0011   0.0035
 376 C_i :2pz    0.0878   0.0145   0.2202  -0.1550  -0.0426  -0.2031  -0.1941
 382 C_i :2pz   -0.0006   0.0000   0.0009  -0.0058   0.0054  -0.0034  -0.0110
 385 C_i :2pz    0.0013  -0.0000   0.0045  -0.0045  -0.0009  -0.0093  -0.0124
 394 C_i :3d1+  -0.0002   0.0004   0.0073  -0.0109   0.0069  -0.0034  -0.0124
 397 C_i :3d1-   0.0140   0.0003   0.0010   0.0073  -0.0022   0.0043   0.0050
 399 C_i :3d1+   0.0177   0.0010   0.0096  -0.0015  -0.0020  -0.0040  -0.0034
 422 C_j :2pz   -0.0065   0.0085   0.1703  -0.2150   0.1004  -0.0883  -0.2087
 431 C_j :2pz    0.0001  -0.0001   0.0040  -0.0058   0.0031  -0.0042  -0.0125
 440 C_j :3d1+  -0.0039  -0.0007  -0.0100   0.0063   0.0046   0.0129   0.0111
 443 C_j :3d1-   0.0181   0.0011   0.0133  -0.0060   0.0003  -0.0029  -0.0014
 445 C_j :3d1+   0.0171   0.0008   0.0072   0.0025  -0.0027   0.0015   0.0054
 468 C_k :2pz   -0.1413  -0.0035   0.0195  -0.1639   0.2246   0.1735   0.0365
 486 C_k :3d1+  -0.0076  -0.0005  -0.0044  -0.0013   0.0080   0.0125   0.0116
 489 C_k :3d1-   0.0160   0.0011   0.0138  -0.0044  -0.0025  -0.0041  -0.0000
 491 C_k :3d1+   0.0150   0.0010   0.0148  -0.0114   0.0087   0.0053   0.0024
 514 C_l :2pz   -0.2013  -0.0107  -0.0921  -0.0479   0.1668   0.2159   0.1695
 532 C_l :3d1+   0.0054   0.0001  -0.0020   0.0093  -0.0121  -0.0085   0.0002
 535 C_l :3d1-   0.0122   0.0010   0.0132  -0.0119   0.0097   0.0055   0.0017
 537 C_l :3d1+   0.0146   0.0011   0.0151  -0.0091   0.0029  -0.0018  -0.0017
 560 C_m :2pz   -0.2338  -0.0173  -0.2145   0.1513  -0.0548   0.0549   0.1537
 569 C_m :2pz   -0.0046  -0.0006  -0.0051   0.0047  -0.0024   0.0029   0.0116
 581 C_m :3d1-   0.0058   0.0007   0.0113  -0.0116   0.0084   0.0025  -0.0015
 606 C_n :2pz   -0.1991  -0.0164  -0.2205   0.2125  -0.1715  -0.0998  -0.0057
 624 C_n :3d1+   0.0100   0.0008   0.0096  -0.0063   0.0008  -0.0057  -0.0115
 652 C_o :2pz   -0.0937  -0.0090  -0.1331   0.1710  -0.2032  -0.2261  -0.2361
 658 C_o :2pz    0.0018   0.0001   0.0008   0.0017  -0.0058  -0.0110  -0.0159
 661 C_o :2pz   -0.0013  -0.0001  -0.0027   0.0047  -0.0078  -0.0119  -0.0172
 698 C_p :2pz    0.0140   0.0001  -0.0076   0.0356  -0.0681  -0.1029  -0.1370
 714 C_p :3d1-   0.0065   0.0005   0.0076  -0.0086   0.0094   0.0102   0.0107
 716 C_p :3d1+   0.0067   0.0006   0.0096  -0.0123   0.0147   0.0164   0.0172
 744 C_q :2pz   -0.1292  -0.0113   0.0719  -0.0055  -0.0907   0.1693  -0.2232
 750 C_q :2pz   -0.0004   0.0135  -0.0024  -0.0042  -0.0066   0.0096  -0.0123
 753 C_q :2pz   -0.0021   0.0010   0.0012  -0.0005  -0.0032   0.0077  -0.0138
 762 C_q :3d1+  -0.0016  -0.0005  -0.0027  -0.0072  -0.0107   0.0121  -0.0110
 765 C_q :3d1-  -0.0101   0.0008   0.0106   0.0108   0.0108  -0.0094   0.0068
 767 C_q :3d1+  -0.0133  -0.0010   0.0123   0.0085   0.0044  -0.0003  -0.0021
 790 C_r :2pz   -0.0350  -0.0136  -0.0451  -0.1247  -0.1830   0.2054  -0.1857
 796 C_r :2pz   -0.0005  -0.0059   0.0027   0.0020  -0.0011   0.0061  -0.0104
 799 C_r :2pz   -0.0016   0.0123  -0.0011  -0.0031  -0.0069   0.0114  -0.0156
 808 C_r :3d1+   0.0064   0.0010  -0.0047  -0.0013   0.0035  -0.0090   0.0138
 811 C_r :3d1-  -0.0133  -0.0057   0.0109   0.0050   0.0009   0.0014   0.0001
 813 C_r :3d1+  -0.0115   0.0014   0.0106   0.0091   0.0083  -0.0072   0.0068
 836 C_s :2pz    0.1241  -0.0125  -0.1942  -0.2077  -0.1465   0.0228   0.1215
 842 C_s :2pz    0.0035   0.0061  -0.0041  -0.0024   0.0010  -0.0057   0.0115
 854 C_s :3d1+   0.0084  -0.0000  -0.0095  -0.0062   0.0008  -0.0083   0.0129
 857 C_s :3d1-  -0.0138  -0.0033   0.0120   0.0080   0.0042  -0.0003  -0.0009
 882 C_t :2pz    0.1850  -0.0060  -0.1999  -0.1357  -0.0116  -0.1203   0.2009
 891 C_t :2pz    0.0040  -0.0072  -0.0046  -0.0046  -0.0012  -0.0060   0.0153
 900 C_t :3d1+  -0.0050   0.0010   0.0092   0.0116   0.0100  -0.0037  -0.0059
 928 C_u :2pz    0.1915   0.0076  -0.0873   0.0770   0.2009  -0.1944   0.0457
 946 C_u :3d1+   0.0054   0.0007   0.0024   0.0099   0.0107  -0.0031  -0.0077
 974 C_v :2pz    0.1289   0.0137   0.0302   0.1768   0.1995  -0.0753  -0.1059
 990 C_v :3d1-  -0.0016   0.0005   0.0074   0.0066  -0.0017   0.0101  -0.0086
 992 C_v :3d1+  -0.0089  -0.0003   0.0056  -0.0023  -0.0105   0.0126  -0.0048
1020 C_w :2pz   -0.0177   0.0153   0.1847   0.1888   0.0071   0.1883  -0.1868
1029 C_w :2pz   -0.0005  -0.0042   0.0049   0.0052  -0.0007   0.0100  -0.0118
1038 C_w :3d1+  -0.0052   0.0006   0.0100   0.0035  -0.0083   0.0119  -0.0020
1066 C_x :2pz   -0.1131   0.0104   0.2097   0.0899  -0.1297   0.2079  -0.0552
1075 C_x :2pz   -0.0015   0.0001   0.0046   0.0032  -0.0037   0.0101  -0.0041
1082 C_x :3d1-  -0.0065  -0.0002   0.0033  -0.0062  -0.0084  -0.0021   0.0114
1084 C_x :3d1+  -0.0001  -0.0007  -0.0081  -0.0106  -0.0024  -0.0102   0.0129
1112 C_y :2pz   -0.1750  -0.0100   0.1991   0.2176   0.2300  -0.2328   0.2213
1118 C_y :2pz   -0.0021   0.0090   0.0033   0.0053   0.0078  -0.0100   0.0121
1121 C_y :2pz   -0.0047   0.0155   0.0043   0.0063   0.0079  -0.0100   0.0122
1135 C_y :3d1+  -0.0066   0.0319   0.0060   0.0088   0.0102  -0.0100   0.0090
1158 C_z :2pz   -0.1887  -0.0007   0.1904   0.1801   0.1579  -0.1253   0.0856
1164 C_z :2pz    0.0058  -0.0295  -0.0022  -0.0017   0.0003  -0.0021   0.0027
1167 C_z :2pz   -0.0022  -0.0225   0.0050   0.0049   0.0058  -0.0066   0.0071
1174 C_z :3d1-  -0.0032  -0.0010   0.0009  -0.0027  -0.0066   0.0104  -0.0130
1176 C_z :3d1+   0.0071   0.0012  -0.0090  -0.0108  -0.0125   0.0138  -0.0142
1204 N_a :2pz    0.1538   0.0125   0.1699  -0.1810   0.1883   0.1926   0.1932
1210 N_a :2pz    0.0047   0.0004   0.0064  -0.0079   0.0097   0.0117   0.0140
1213 N_a :2pz    0.0067   0.0006   0.0088  -0.0112   0.0140   0.0175   0.0218
1250 N_b :2pz    0.0208  -0.0070  -0.0175  -0.0132  -0.0068  -0.0008   0.0086
1263 N_b :3d1+  -0.0015   0.0195  -0.0003   0.0006   0.0008  -0.0009   0.0009
1266 N_b :3d1-  -0.0069  -0.0149   0.0095   0.0100   0.0107  -0.0111   0.0109
1268 N_b :3d1+  -0.0045   0.0557  -0.0005   0.0021   0.0027  -0.0029   0.0029
1273 N_b :3d1+  -0.0008  -0.0164   0.0022   0.0011   0.0006  -0.0001  -0.0002
1296 O_a :2pz    0.0819  -0.6390  -0.0275  -0.0600  -0.0683   0.0717  -0.0705
1302 O_a :2pz    0.0052  -0.0616   0.0002  -0.0032  -0.0045   0.0057  -0.0065
1305 O_a :2pz    0.0036  -0.0439  -0.0001  -0.0029  -0.0044   0.0058  -0.0072
1314 O_a :3d1+   0.0023  -0.0163  -0.0008  -0.0015  -0.0015   0.0013  -0.0011
1319 O_a :3d1+   0.0016  -0.0188   0.0002  -0.0005  -0.0006   0.0007  -0.0007
1342 O_b :2pz    0.0309   0.6437  -0.0982  -0.0755  -0.0739   0.0727  -0.0688
1348 O_b :2pz    0.0018   0.0617  -0.0079  -0.0055  -0.0052   0.0052  -0.0053
1351 O_b :2pz    0.0003   0.0463  -0.0054  -0.0042  -0.0049   0.0058  -0.0068
1358 O_b :3d1-   0.0003   0.0123  -0.0014  -0.0008  -0.0006   0.0004  -0.0002
1360 O_b :3d1+  -0.0010  -0.0116   0.0022   0.0017   0.0015  -0.0013   0.0011
1363 O_b :3d1-   0.0006   0.0169  -0.0021  -0.0013  -0.0010   0.0008  -0.0006
1365 O_b :3d1+  -0.0005  -0.0101   0.0013   0.0007   0.0003  -0.0001  -0.0001
1945 H_y :2pz   -0.0015   0.0162   0.0015   0.0034   0.0047  -0.0051   0.0052

    Orbital       105      106      107      108      109      110      111
   2 C_a :1s    -0.0000   0.0000  -0.0000  -0.0000   0.0028   0.0113  -0.0010
   4 C_a :1s    -0.0000   0.0000  -0.0000   0.0000  -0.1912  -0.6550  -0.1329
   5 C_a :1s     0.0000  -0.0000   0.0000  -0.0000  -0.9090 -13.3360  -3.0157
   6 C_a :2px   -0.0000   0.0000   0.0000   0.0000  -0.0019  -0.0141   0.0021
   7 C_a :2py    0.0000  -0.0000   0.0000   0.0000   0.0019   0.0140  -0.0037
   8 C_a :2pz   -0.1012   0.1855   0.1937   0.1378   0.0000  -0.0000  -0.0000
  10 C_a :2py   -0.0000   0.0000   0.0000  -0.0000  -0.0040  -0.0005   0.0101
  12 C_a :2px    0.0000   0.0000   0.0000  -0.0000  -0.0653   0.0058   0.1606
  13 C_a :2py    0.0000  -0.0000   0.0000  -0.0000  -0.1797  -0.6084  -0.2334
  14 C_a :2pz   -0.0015   0.0159   0.0158   0.0144  -0.0000   0.0000   0.0000
  15 C_a :2px   -0.0000   0.0000  -0.0000   0.0000  -2.6742  -1.7086   2.0693
  16 C_a :2py   -0.0000   0.0000  -0.0000   0.0000  -2.1175   1.1073   2.2407
  17 C_a :2pz   -0.0068   0.0327   0.0372   0.0870   0.0000  -0.0000  -0.0000
  23 C_a :3d2-   0.0000   0.0000  -0.0000   0.0000   0.0162   0.0115  -0.0066
  24 C_a :3d1-   0.0075   0.0114   0.0049  -0.0155  -0.0000   0.0000   0.0000
  25 C_a :3d0    0.0000  -0.0000   0.0000   0.0000   0.0044   0.0136   0.0033
  26 C_a :3d1+   0.0045   0.0147   0.0079  -0.0165   0.0000  -0.0000  -0.0000
  28 C_a :3d2-   0.0000  -0.0000   0.0000  -0.0000   0.2715   0.0277  -0.0215
  30 C_a :3d0   -0.0000   0.0000  -0.0000   0.0000   0.0206   0.1943   0.0521
  31 C_a :3d1+  -0.0020   0.0056   0.0041  -0.0159  -0.0000   0.0000   0.0000
  32 C_a :3d2+   0.0000  -0.0000   0.0000  -0.0000  -0.1528  -0.2416  -0.0393
  40 C_a :4f3-  -0.0000   0.0000   0.0000   0.0000  -0.0013  -0.0291  -0.0100
  46 C_a :4f3+  -0.0000   0.0000  -0.0000  -0.0000  -0.0051  -0.0232  -0.0067
  48 C_b :1s     0.0000   0.0000   0.0000   0.0000   0.0026  -0.0155  -0.0068
  50 C_b :1s    -0.0000   0.0000  -0.0000   0.0000  -0.2110   0.7929   0.4872
  51 C_b :1s     0.0000  -0.0000   0.0000  -0.0000  -1.1326  12.6992   3.5041
  52 C_b :2px    0.0000  -0.0000  -0.0000  -0.0000   0.0020  -0.0212  -0.0101
  53 C_b :2py    0.0000  -0.0000  -0.0000  -0.0000  -0.0014   0.0219   0.0098
  54 C_b :2pz    0.0520   0.2178   0.1173  -0.2146  -0.0000   0.0000   0.0000
  58 C_b :2px    0.0000  -0.0000   0.0000  -0.0000  -0.1552  -0.1503  -0.0350
  59 C_b :2py   -0.0000  -0.0000   0.0000  -0.0000  -0.1038  -0.4006   0.0880
  60 C_b :2pz   -0.0018   0.0140   0.0125  -0.0239   0.0000  -0.0000  -0.0000
  61 C_b :2px    0.0000  -0.0000   0.0000  -0.0000  -2.4043  -2.2201   2.7866
  62 C_b :2py    0.0000  -0.0000   0.0000  -0.0000  -2.9127   0.6706   3.9649
  63 C_b :2pz    0.0033   0.0284   0.0294  -0.1331  -0.0000   0.0000   0.0000
  69 C_b :3d2-   0.0000  -0.0000   0.0000   0.0000   0.0139  -0.0162  -0.0122
  70 C_b :3d1-   0.0099  -0.0075  -0.0126  -0.0090  -0.0000  -0.0000   0.0000
  71 C_b :3d0    0.0000  -0.0000  -0.0000  -0.0000   0.0048  -0.0122  -0.0042
  72 C_b :3d1+   0.0081  -0.0121  -0.0142  -0.0103   0.0000  -0.0000  -0.0000
  74 C_b :3d2-   0.0000  -0.0000   0.0000  -0.0000   0.1680  -0.2084  -0.2533
  76 C_b :3d0   -0.0000   0.0000  -0.0000   0.0000   0.0288  -0.1607  -0.0086
  77 C_b :3d1+  -0.0001  -0.0062  -0.0061  -0.0106  -0.0000   0.0000   0.0000
  78 C_b :3d2+   0.0000  -0.0000  -0.0000  -0.0000  -0.0555   0.1394  -0.0379
  86 C_b :4f3-  -0.0000  -0.0000  -0.0000  -0.0000   0.0006  -0.0247  -0.0020
  92 C_b :4f3+  -0.0000  -0.0000  -0.0000   0.0000   0.0095  -0.0234  -0.0121
  96 C_c :1s     0.0000  -0.0000  -0.0000  -0.0000  -0.0236  -0.5960   0.4872
  97 C_c :1s    -0.0000   0.0000  -0.0000   0.0000   0.3429 -11.0924  -2.4864
  98 C_c :2px    0.0000   0.0000   0.0000   0.0000  -0.0016  -0.0117   0.0024
  99 C_c :2py    0.0000  -0.0000   0.0000   0.0000   0.0017   0.0114  -0.0040
 100 C_c :2pz    0.1977  -0.1142  -0.2190  -0.1133   0.0000  -0.0000  -0.0000
 104 C_c :2px    0.0000  -0.0000   0.0000  -0.0000  -0.1149  -0.0084   0.3111
 105 C_c :2py   -0.0000   0.0000   0.0000   0.0000  -0.1030  -0.5273  -0.0705
 106 C_c :2pz    0.0086  -0.0116  -0.0184  -0.0115  -0.0000   0.0000   0.0000
 107 C_c :2px   -0.0000   0.0000  -0.0000   0.0000  -2.6327  -1.4358   2.5776
 108 C_c :2py   -0.0000   0.0000  -0.0000   0.0000  -2.8227   0.7739   3.3295
 109 C_c :2pz    0.0172  -0.0228  -0.0430  -0.0677   0.0000  -0.0000  -0.0000
 115 C_c :3d2-   0.0000  -0.0000  -0.0000  -0.0000   0.0085   0.0112  -0.0017
 116 C_c :3d1-  -0.0017  -0.0117  -0.0066   0.0143  -0.0000   0.0000   0.0000
 117 C_c :3d0    0.0000   0.0000   0.0000   0.0000  -0.0005   0.0111  -0.0002
 118 C_c :3d1+   0.0037  -0.0137  -0.0101   0.0150  -0.0000   0.0000   0.0000
 120 C_c :3d2-   0.0000  -0.0000   0.0000  -0.0000  -0.0844   0.0856  -0.2317
 121 C_c :3d1-  -0.0015  -0.0019  -0.0021   0.0124   0.0000  -0.0000  -0.0000
 122 C_c :3d0    0.0000   0.0000   0.0000  -0.0000  -0.0067   0.1609   0.0830
 123 C_c :3d1+   0.0041  -0.0044  -0.0057   0.0173   0.0000  -0.0000  -0.0000
 124 C_c :3d2+   0.0000  -0.0000   0.0000  -0.0000  -0.0742  -0.2259   0.0060
 132 C_c :4f3-  -0.0000  -0.0000  -0.0000   0.0000  -0.0001  -0.0246  -0.0039
 138 C_c :4f3+  -0.0000  -0.0000  -0.0000  -0.0000   0.0046  -0.0194  -0.0063
 140 C_d :1s     0.0000  -0.0000   0.0000  -0.0000   0.0018  -0.0125  -0.0024
 142 C_d :1s     0.0000  -0.0000   0.0000   0.0000   0.1000   0.7446  -0.0325
 143 C_d :1s    -0.0000   0.0000  -0.0000   0.0000  -0.3565  10.8177   0.2367
 144 C_d :2px   -0.0000  -0.0000  -0.0000  -0.0000   0.0011  -0.0178  -0.0037
 145 C_d :2py    0.0000  -0.0000  -0.0000   0.0000  -0.0010   0.0183   0.0030
 146 C_d :2pz    0.0759  -0.1969  -0.1479   0.1925   0.0000  -0.0000  -0.0000
 148 C_d :2py   -0.0000  -0.0000  -0.0000  -0.0000   0.0049  -0.0076  -0.0116
 150 C_d :2px   -0.0000   0.0000   0.0000  -0.0000  -0.1532  -0.1526   0.1815
 151 C_d :2py    0.0000  -0.0000   0.0000   0.0000  -0.1082  -0.3477   0.1685
 152 C_d :2pz    0.0081  -0.0106  -0.0147   0.0217  -0.0000   0.0000   0.0000
 153 C_d :2px    0.0000  -0.0000   0.0000  -0.0000  -3.0655  -1.3712   2.1434
 154 C_d :2py    0.0000  -0.0000   0.0000  -0.0000  -2.7029   1.1431   2.6300
 155 C_d :2pz    0.0086  -0.0222  -0.0344   0.1230   0.0000  -0.0000  -0.0000
 161 C_d :3d2-  -0.0000   0.0000   0.0000   0.0000   0.0004  -0.0149  -0.0040
 162 C_d :3d1-  -0.0120   0.0024   0.0137   0.0073  -0.0000  -0.0000  -0.0000
 163 C_d :3d0   -0.0000   0.0000  -0.0000  -0.0000   0.0028  -0.0105   0.0014
 164 C_d :3d1+  -0.0138   0.0069   0.0159   0.0086  -0.0000  -0.0000  -0.0000
 166 C_d :3d2-  -0.0000   0.0000  -0.0000   0.0000  -0.1686  -0.1741  -0.1973
 168 C_d :3d0    0.0000  -0.0000   0.0000  -0.0000   0.0500  -0.1292   0.0231
 169 C_d :3d1+  -0.0036   0.0044   0.0062   0.0126  -0.0000   0.0000   0.0000
 170 C_d :3d2+  -0.0000   0.0000  -0.0000   0.0000   0.0807   0.1093  -0.1900
 178 C_d :4f3-  -0.0000   0.0000  -0.0000   0.0000  -0.0016  -0.0213   0.0075
 184 C_d :4f3+  -0.0000   0.0000   0.0000   0.0000   0.0063  -0.0196  -0.0074
 188 C_e :1s     0.0000  -0.0000   0.0000  -0.0000   0.1094  -0.3618   0.2647
 189 C_e :1s     0.0000   0.0000   0.0000   0.0000  -1.8767  -9.8777   3.0923
 192 C_e :2pz   -0.2209   0.0227   0.2380   0.0890  -0.0000   0.0000   0.0000
 193 C_e :2px    0.0000  -0.0000   0.0000  -0.0000   0.0006   0.0025   0.0112
 196 C_e :2px    0.0000  -0.0000   0.0000  -0.0000   0.0184   0.0411   0.2054
 197 C_e :2py    0.0000  -0.0000   0.0000   0.0000  -0.1572  -0.4453   0.1101
 198 C_e :2pz   -0.0123   0.0055   0.0203   0.0083   0.0000  -0.0000  -0.0000
 199 C_e :2px    0.0000   0.0000   0.0000   0.0000  -3.0357  -1.3472   4.4542
 200 C_e :2py   -0.0000   0.0000  -0.0000  -0.0000  -2.4019   0.7653   3.5475
 201 C_e :2pz   -0.0205   0.0090   0.0479   0.0485  -0.0000   0.0000   0.0000
 208 C_e :3d1-  -0.0049   0.0102   0.0083  -0.0125   0.0000  -0.0000   0.0000
 210 C_e :3d1+  -0.0108   0.0104   0.0121  -0.0131  -0.0000   0.0000   0.0000
 212 C_e :3d2-  -0.0000   0.0000  -0.0000   0.0000   0.0020  -0.0025   0.0822
 214 C_e :3d0    0.0000  -0.0000  -0.0000   0.0000   0.0752   0.1562  -0.0514
 215 C_e :3d1+  -0.0054   0.0024   0.0058  -0.0114   0.0000  -0.0000  -0.0000
 216 C_e :3d2+   0.0000  -0.0000  -0.0000  -0.0000  -0.1274  -0.1636  -0.1070
 224 C_e :4f3-   0.0000   0.0000   0.0000   0.0000  -0.0021  -0.0217   0.0101
 230 C_e :4f3+   0.0000   0.0000   0.0000   0.0000  -0.0091  -0.0185   0.0060
 232 C_f :1s    -0.0000  -0.0000  -0.0000  -0.0000   0.0003  -0.0101   0.0049
 234 C_f :1s     0.0000   0.0000  -0.0000   0.0000  -0.0798   0.6001  -0.2537
 235 C_f :1s     0.0000  -0.0000   0.0000  -0.0000  -0.1696   9.0412  -5.0920
 236 C_f :2px   -0.0000   0.0000  -0.0000  -0.0000   0.0009  -0.0142   0.0030
 237 C_f :2py   -0.0000  -0.0000  -0.0000  -0.0000  -0.0002   0.0148  -0.0040
[...]
      ----------------------------------------------------------------
         1    1.55497D-01  0.00D+00  1.55D-01  7.75D+01    0.00000D+00
         2    1.61351D-01  0.00D+00  1.61D-01  8.04D+01    1.57000D-02
         3    1.81443D-01  0.00D+00  1.81D-01  9.01D+01    3.14000D-02

 ** RSPCTL MICROITERATION NUMBER    7

       No.  Residual tot.,    conf., and orb.    Bnorm      Frequency 
      ----------------------------------------------------------------
         1    4.93803D-02  0.00D+00  4.94D-02  7.75D+01    0.00000D+00
         2    5.15158D-02  0.00D+00  5.15D-02  8.04D+01    1.57000D-02
         3    5.89256D-02  0.00D+00  5.89D-02  9.01D+01    3.14000D-02

 *** THE REQUESTED    3 SOLUTION VECTORS CONVERGED

 Convergence of RSP solution vectors, threshold = 1.00D-03
 ---------------------------------------------------------------
 (dimension of paired reduced space:   42)
 RSP solution vector no.    1; norm of residual   6.37D-04
 RSP solution vector no.    2; norm of residual   6.41D-04
 RSP solution vector no.    3; norm of residual   6.54D-04

 *** RSPCTL MICROITERATIONS CONVERGED

@ QRLRVE: SINGLET SOLUTION FOR SYMMETRY    1  ( A  )    LABEL   YDIPLEN     FREQUENCY   0.000000D+00

@ QRLRVE:  << XDIPLEN  ; YDIPLEN  >> (   0.00000):     1125.44923235    

@ QRLRVE:  << YDIPLEN  ; YDIPLEN  >> (   0.00000):     1198.97530454    

@ QRLRVE:  << ZDIPLEN  ; YDIPLEN  >> (   0.00000):    1.059395445967E-14

@ QRLRVE: SINGLET SOLUTION FOR SYMMETRY    1  ( A  )    LABEL   YDIPLEN     FREQUENCY   0.157000D-01

@ QRLRVE:  << XDIPLEN  ; YDIPLEN  >> (   0.01570):     1157.18488339    

@ QRLRVE:  << YDIPLEN  ; YDIPLEN  >> (   0.01570):     1225.28313312    

@ QRLRVE:  << ZDIPLEN  ; YDIPLEN  >> (   0.01570):   -2.140753195042E-15

@ QRLRVE: SINGLET SOLUTION FOR SYMMETRY    1  ( A  )    LABEL   YDIPLEN     FREQUENCY   0.314000D-01

@ QRLRVE:  << XDIPLEN  ; YDIPLEN  >> (   0.03140):     1264.25646945    

@ QRLRVE:  << YDIPLEN  ; YDIPLEN  >> (   0.03140):     1313.96081858    

@ QRLRVE:  << ZDIPLEN  ; YDIPLEN  >> (   0.03140):   -4.505559500426E-14


 QRLRVE -- linear response calculation for symmetry  1  ( A  )
 QRLRVE -- operator label : ZDIPLEN 
 QRLRVE -- operator spin  :   0
 QRLRVE -- frequencies :  0.000000  0.015700  0.031400



 ---  SOLVING SETS OF LINEAR EQUATIONS FOR LINEAR RESPONSE PROPERTIES ---

 Operator symmetry = 1  ( A  ); triplet =   F


 ** RSPCTL MICROITERATION NUMBER    1

       No.  Residual tot.,    conf., and orb.    Bnorm      Frequency 
      ----------------------------------------------------------------
         1    4.31844D+00  0.00D+00  4.32D+00  1.14D+01    0.00000D+00
         2    4.32084D+00  0.00D+00  4.32D+00  1.14D+01    1.57000D-02
         3    4.32805D+00  0.00D+00  4.33D+00  1.14D+01    3.14000D-02

 ** RSPCTL MICROITERATION NUMBER    2

       No.  Residual tot.,    conf., and orb.    Bnorm      Frequency 
      ----------------------------------------------------------------
         1    1.06718D+00  0.00D+00  1.07D+00  1.19D+01    0.00000D+00
         2    1.06897D+00  0.00D+00  1.07D+00  1.19D+01    1.57000D-02
         3    1.07435D+00  0.00D+00  1.07D+00  1.20D+01    3.14000D-02

 ** RSPCTL MICROITERATION NUMBER    3

       No.  Residual tot.,    conf., and orb.    Bnorm      Frequency 
      ----------------------------------------------------------------
         1    2.09715D-01  0.00D+00  2.10D-01  1.19D+01    0.00000D+00
         2    2.10530D-01  0.00D+00  2.11D-01  1.19D+01    1.57000D-02
         3    2.13000D-01  0.00D+00  2.13D-01  1.20D+01    3.14000D-02

 ** RSPCTL MICROITERATION NUMBER    4

       No.  Residual tot.,    conf., and orb.    Bnorm      Frequency 
      ----------------------------------------------------------------
         1    6.34034D-02  0.00D+00  6.34D-02  1.19D+01    0.00000D+00
         2    6.39773D-02  0.00D+00  6.40D-02  1.19D+01    1.57000D-02
         3    6.57487D-02  0.00D+00  6.57D-02  1.20D+01    3.14000D-02

 ** RSPCTL MICROITERATION NUMBER    5

       No.  Residual tot.,    conf., and orb.    Bnorm      Frequency 
      ----------------------------------------------------------------
         1    2.17754D-02  0.00D+00  2.18D-02  1.19D+01    0.00000D+00
         2    2.21526D-02  0.00D+00  2.22D-02  1.19D+01    1.57000D-02
         3    2.33256D-02  0.00D+00  2.33D-02  1.20D+01    3.14000D-02

 ** RSPCTL MICROITERATION NUMBER    6

       No.  Residual tot.,    conf., and orb.    Bnorm      Frequency 
      ----------------------------------------------------------------
         1    8.01595D-03  0.00D+00  8.02D-03  1.19D+01    0.00000D+00
         2    8.21095D-03  0.00D+00  8.21D-03  1.19D+01    1.57000D-02
         3    8.82200D-03  0.00D+00  8.82D-03  1.20D+01    3.14000D-02

 *** THE REQUESTED    3 SOLUTION VECTORS CONVERGED

 Convergence of RSP solution vectors, threshold = 1.00D-03
 ---------------------------------------------------------------
 (dimension of paired reduced space:   36)
 RSP solution vector no.    1; norm of residual   6.74D-04
 RSP solution vector no.    2; norm of residual   6.89D-04
 RSP solution vector no.    3; norm of residual   7.35D-04

 *** RSPCTL MICROITERATIONS CONVERGED

@ QRLRVE: SINGLET SOLUTION FOR SYMMETRY    1  ( A  )    LABEL   ZDIPLEN     FREQUENCY   0.000000D+00

@ QRLRVE:  << XDIPLEN  ; ZDIPLEN  >> (   0.00000):    7.337895437225E-13

@ QRLRVE:  << YDIPLEN  ; ZDIPLEN  >> (   0.00000):    1.447854893036E-13

@ QRLRVE:  << ZDIPLEN  ; ZDIPLEN  >> (   0.00000):     202.832818730    

@ QRLRVE: SINGLET SOLUTION FOR SYMMETRY    1  ( A  )    LABEL   ZDIPLEN     FREQUENCY   0.157000D-01

@ QRLRVE:  << XDIPLEN  ; ZDIPLEN  >> (   0.01570):    7.345217336877E-13

@ QRLRVE:  << YDIPLEN  ; ZDIPLEN  >> (   0.01570):    1.381486731050E-13

@ QRLRVE:  << ZDIPLEN  ; ZDIPLEN  >> (   0.01570):     203.010444579    

@ QRLRVE: SINGLET SOLUTION FOR SYMMETRY    1  ( A  )    LABEL   ZDIPLEN     FREQUENCY   0.314000D-01

@ QRLRVE:  << XDIPLEN  ; ZDIPLEN  >> (   0.03140):    7.349285382252E-13

@ QRLRVE:  << YDIPLEN  ; ZDIPLEN  >> (   0.03140):    1.161635491088E-13

@ QRLRVE:  << ZDIPLEN  ; ZDIPLEN  >> (   0.03140):     203.546589397    
 
 ======================================================================
 ---  L I N E A R   R E S P O N S E   F U N C T I O N S --- 
 ======================================================================

 The -<<A;B>>(omega_b) functions from vectors generated
 in a *QUADRA calculation of <<A;B,C>>(omega_b,omega_c)

 Note: the accuracy of off-diagonal elements will be linear
 in the convergence threshold THCLR =  1.00D-03


 Perturbation symmetry.     KSYMOP:           1
 Perturbation spin symmetry.TRPLET:           F
 Orbital variables.         KZWOPT:      203835
 Configuration variables.   KZCONF:           0
 Total number of variables. KZVAR :      203835

@ Singlet linear response function in a.u.

@ A operator, symmetry, frequency:   XDIPLEN    1 -0.000000
@ B operator, symmetry, frequency:   XDIPLEN    1  0.000000

@ Value of linear response -<<A;B>>(omega):    1651.752565471482

@ Singlet linear response function in a.u.

@ A operator, symmetry, frequency:   YDIPLEN    1 -0.000000
@ B operator, symmetry, frequency:   XDIPLEN    1  0.000000

@ Value of linear response -<<A;B>>(omega):    1125.426471104767

@ Singlet linear response function in a.u.

@ A operator, symmetry, frequency:   ZDIPLEN    1 -0.000000
@ B operator, symmetry, frequency:   XDIPLEN    1  0.000000

@ Value of linear response -<<A;B>>(omega):       0.000000000000

@ Singlet linear response function in a.u.

@ A operator, symmetry, frequency:   XDIPLEN    1 -0.015700
@ B operator, symmetry, frequency:   XDIPLEN    1  0.015700

@ Value of linear response -<<A;B>>(omega):    1690.736708281531

@ Singlet linear response function in a.u.

@ A operator, symmetry, frequency:   YDIPLEN    1 -0.015700
@ B operator, symmetry, frequency:   XDIPLEN    1  0.015700

@ Value of linear response -<<A;B>>(omega):    1157.161124587064

@ Singlet linear response function in a.u.

@ A operator, symmetry, frequency:   ZDIPLEN    1 -0.015700
@ B operator, symmetry, frequency:   XDIPLEN    1  0.015700

@ Value of linear response -<<A;B>>(omega):       0.000000000000

@ Singlet linear response function in a.u.

@ A operator, symmetry, frequency:   XDIPLEN    1 -0.000000
@ B operator, symmetry, frequency:   YDIPLEN    1  0.000000

@ Value of linear response -<<A;B>>(omega):    1125.449232347511

@ Singlet linear response function in a.u.

@ A operator, symmetry, frequency:   YDIPLEN    1 -0.000000
@ B operator, symmetry, frequency:   YDIPLEN    1  0.000000

@ Value of linear response -<<A;B>>(omega):    1198.975304539342

@ Singlet linear response function in a.u.

@ A operator, symmetry, frequency:   ZDIPLEN    1 -0.000000
@ B operator, symmetry, frequency:   YDIPLEN    1  0.000000

@ Value of linear response -<<A;B>>(omega):       0.000000000000

@ Singlet linear response function in a.u.

@ A operator, symmetry, frequency:   XDIPLEN    1 -0.015700
@ B operator, symmetry, frequency:   YDIPLEN    1  0.015700

@ Value of linear response -<<A;B>>(omega):    1157.184883385028

@ Singlet linear response function in a.u.

@ A operator, symmetry, frequency:   YDIPLEN    1 -0.015700
@ B operator, symmetry, frequency:   YDIPLEN    1  0.015700

@ Value of linear response -<<A;B>>(omega):    1225.283133120418

@ Singlet linear response function in a.u.

@ A operator, symmetry, frequency:   ZDIPLEN    1 -0.015700
@ B operator, symmetry, frequency:   YDIPLEN    1  0.015700

@ Value of linear response -<<A;B>>(omega):      -0.000000000000

@ Singlet linear response function in a.u.

@ A operator, symmetry, frequency:   XDIPLEN    1 -0.000000
@ B operator, symmetry, frequency:   ZDIPLEN    1  0.000000

@ Value of linear response -<<A;B>>(omega):       0.000000000001

@ Singlet linear response function in a.u.

@ A operator, symmetry, frequency:   YDIPLEN    1 -0.000000
@ B operator, symmetry, frequency:   ZDIPLEN    1  0.000000

@ Value of linear response -<<A;B>>(omega):       0.000000000000

@ Singlet linear response function in a.u.

@ A operator, symmetry, frequency:   ZDIPLEN    1 -0.000000
@ B operator, symmetry, frequency:   ZDIPLEN    1  0.000000

@ Value of linear response -<<A;B>>(omega):     202.832818730484

@ Singlet linear response function in a.u.

@ A operator, symmetry, frequency:   XDIPLEN    1 -0.015700
@ B operator, symmetry, frequency:   ZDIPLEN    1  0.015700

@ Value of linear response -<<A;B>>(omega):       0.000000000001

@ Singlet linear response function in a.u.

@ A operator, symmetry, frequency:   YDIPLEN    1 -0.015700
@ B operator, symmetry, frequency:   ZDIPLEN    1  0.015700

@ Value of linear response -<<A;B>>(omega):       0.000000000000

@ Singlet linear response function in a.u.

@ A operator, symmetry, frequency:   ZDIPLEN    1 -0.015700
@ B operator, symmetry, frequency:   ZDIPLEN    1  0.015700

@ Value of linear response -<<A;B>>(omega):     203.010444578897


  Results from quadratic response calculation
 --------------------------------------------

@ B-freq = 0.000000  C-freq = 0.000000     beta(X;X,X) =  37092.87565385
@ B-freq = 0.000000  C-freq = 0.000000     beta(Y;X,X) =  39954.27752736
@ B-freq = 0.000000  C-freq = 0.000000     beta(Z;X,X) =     -0.00000000
@ B-freq = 0.015700  C-freq = 0.000000     beta(X;X,X) =  39621.69560911
@ B-freq = 0.015700  C-freq = 0.000000     beta(Y;X,X) =  42345.36391661
@ B-freq = 0.015700  C-freq = 0.000000     beta(Z;X,X) =     -0.00000000
@ B-freq = 0.000000  C-freq = 0.000000     beta(X;Y,X) = beta(Y,X,X)
@ B-freq = 0.000000  C-freq = 0.000000     beta(X;Y,X) =  39954.27599621
@ B-freq = 0.000000  C-freq = 0.000000     beta(Y;Y,X) =  41603.59167120
@ B-freq = 0.000000  C-freq = 0.000000     beta(Z;Y,X) =     -0.00000000
@ B-freq = 0.015700  C-freq = 0.000000     beta(X;Y,X) =  42345.36231924
@ B-freq = 0.015700  C-freq = 0.000000     beta(Y;Y,X) =  43837.37074888
@ B-freq = 0.015700  C-freq = 0.000000     beta(Z;Y,X) =     -0.00000000
@ B-freq = 0.000000  C-freq = 0.000000     beta(X;Z,X) = beta(Z,X,X)
@ B-freq = 0.000000  C-freq = 0.000000     beta(Y;Z,X) = beta(Z,Y,X)
@ B-freq = 0.000000  C-freq = 0.000000     beta(X;Z,X) =     -0.00000000
@ B-freq = 0.000000  C-freq = 0.000000     beta(Y;Z,X) =     -0.00000000
@ B-freq = 0.000000  C-freq = 0.000000     beta(Z;Z,X) =    -20.11428076
@ B-freq = 0.015700  C-freq = 0.000000     beta(X;Z,X) =     -0.00000000
@ B-freq = 0.015700  C-freq = 0.000000     beta(Y;Z,X) =     -0.00000000
@ B-freq = 0.015700  C-freq = 0.000000     beta(Z;Z,X) =    -20.52767450
@ B-freq = 0.000000  C-freq = 0.015700     beta(X;X,X) = beta(X,X,X)
@ B-freq = 0.000000  C-freq = 0.015700     beta(Y;X,X) = beta(Y,X,X)
@ B-freq = 0.000000  C-freq = 0.015700     beta(Z;X,X) = beta(Z,X,X)
@ B-freq = 0.015700  C-freq = 0.015700     beta(X;X,X) =  45440.56550917
@ B-freq = 0.015700  C-freq = 0.015700     beta(Y;X,X) =  47506.50772596
@ B-freq = 0.015700  C-freq = 0.015700     beta(Z;X,X) =     -0.00000000
@ B-freq = 0.000000  C-freq = 0.015700     beta(X;Y,X) =  42615.64554475
@ B-freq = 0.000000  C-freq = 0.015700     beta(Y;Y,X) =  44083.11389601
@ B-freq = 0.000000  C-freq = 0.015700     beta(Z;Y,X) =     -0.00000000
@ B-freq = 0.015700  C-freq = 0.015700     beta(X;Y,X) =  48427.35264601
@ B-freq = 0.015700  C-freq = 0.015700     beta(Y;Y,X) =  49195.59454493
@ B-freq = 0.015700  C-freq = 0.015700     beta(Z;Y,X) =     -0.00000000
@ B-freq = 0.000000  C-freq = 0.015700     beta(X;Z,X) =     -0.00000000
@ B-freq = 0.000000  C-freq = 0.015700     beta(Y;Z,X) =     -0.00000000
@ B-freq = 0.000000  C-freq = 0.015700     beta(Z;Z,X) =    -20.21220778
@ B-freq = 0.015700  C-freq = 0.015700     beta(X;Z,X) =     -0.00000000
@ B-freq = 0.015700  C-freq = 0.015700     beta(Y;Z,X) =     -0.00000000
@ B-freq = 0.015700  C-freq = 0.015700     beta(Z;Z,X) =    -21.07225578
@ B-freq = 0.000000  C-freq = 0.000000     beta(X;X,Y) = beta(Y,X,X)
@ B-freq = 0.000000  C-freq = 0.000000     beta(Y;X,Y) = beta(Y,Y,X)
@ B-freq = 0.000000  C-freq = 0.000000     beta(Z;X,Y) = beta(Z,Y,X)
@ B-freq = 0.015700  C-freq = 0.000000     beta(X;X,Y) = beta(X,Y,X)
@ B-freq = 0.015700  C-freq = 0.000000     beta(Y;X,Y) = beta(Y,Y,X)
@ B-freq = 0.015700  C-freq = 0.000000     beta(Z;X,Y) = beta(Z,Y,X)
@ B-freq = 0.000000  C-freq = 0.000000     beta(X;Y,Y) = beta(Y,Y,X)
@ B-freq = 0.000000  C-freq = 0.000000     beta(X;Y,Y) =  41603.59060500
@ B-freq = 0.000000  C-freq = 0.000000     beta(Y;Y,Y) =  42218.82424109
@ B-freq = 0.000000  C-freq = 0.000000     beta(Z;Y,Y) =     -0.00000000
@ B-freq = 0.015700  C-freq = 0.000000     beta(X;Y,Y) =  44083.11278348
@ B-freq = 0.015700  C-freq = 0.000000     beta(Y;Y,Y) =  44507.93038718
@ B-freq = 0.015700  C-freq = 0.000000     beta(Z;Y,Y) =     -0.00000000
@ B-freq = 0.000000  C-freq = 0.000000     beta(X;Z,Y) = beta(Z,Y,X)
@ B-freq = 0.000000  C-freq = 0.000000     beta(Y;Z,Y) = beta(Z,Y,Y)
@ B-freq = 0.000000  C-freq = 0.000000     beta(X;Z,Y) =     -0.00000000
@ B-freq = 0.000000  C-freq = 0.000000     beta(Y;Z,Y) =     -0.00000000
@ B-freq = 0.000000  C-freq = 0.000000     beta(Z;Z,Y) =    -23.67663084
@ B-freq = 0.015700  C-freq = 0.000000     beta(X;Z,Y) =     -0.00000000
@ B-freq = 0.015700  C-freq = 0.000000     beta(Y;Z,Y) =     -0.00000000
@ B-freq = 0.015700  C-freq = 0.000000     beta(Z;Z,Y) =    -24.03115114
@ B-freq = 0.000000  C-freq = 0.015700     beta(X;X,Y) = beta(X,Y,X)
@ B-freq = 0.000000  C-freq = 0.015700     beta(Y;X,Y) = beta(Y,Y,X)
@ B-freq = 0.000000  C-freq = 0.015700     beta(Z;X,Y) = beta(Z,Y,X)
@ B-freq = 0.015700  C-freq = 0.015700     beta(X;X,Y) = beta(X,Y,X)
@ B-freq = 0.015700  C-freq = 0.015700     beta(Y;X,Y) = beta(Y,Y,X)
@ B-freq = 0.015700  C-freq = 0.015700     beta(Z;X,Y) = beta(Z,Y,X)
@ B-freq = 0.000000  C-freq = 0.015700     beta(X;Y,Y) = beta(X,Y,Y)
@ B-freq = 0.000000  C-freq = 0.015700     beta(Y;Y,Y) = beta(Y,Y,Y)
@ B-freq = 0.000000  C-freq = 0.015700     beta(Z;Y,Y) = beta(Z,Y,Y)
@ B-freq = 0.015700  C-freq = 0.015700     beta(X;Y,Y) =  50033.78669828
@ B-freq = 0.015700  C-freq = 0.015700     beta(Y;Y,Y) =  49717.75594082
@ B-freq = 0.015700  C-freq = 0.015700     beta(Z;Y,Y) =     -0.00000000
@ B-freq = 0.000000  C-freq = 0.015700     beta(X;Z,Y) =     -0.00000000
@ B-freq = 0.000000  C-freq = 0.015700     beta(Y;Z,Y) =     -0.00000000
@ B-freq = 0.000000  C-freq = 0.015700     beta(Z;Z,Y) =    -23.75700544
@ B-freq = 0.015700  C-freq = 0.015700     beta(X;Z,Y) =     -0.00000000
@ B-freq = 0.015700  C-freq = 0.015700     beta(Y;Z,Y) =     -0.00000000
@ B-freq = 0.015700  C-freq = 0.015700     beta(Z;Z,Y) =    -24.49291818
@ B-freq = 0.000000  C-freq = 0.000000     beta(X;X,Z) = beta(Z,X,X)
@ B-freq = 0.000000  C-freq = 0.000000     beta(Y;X,Z) = beta(Z,Y,X)
@ B-freq = 0.000000  C-freq = 0.000000     beta(Z;X,Z) = beta(Z,Z,X)
@ B-freq = 0.015700  C-freq = 0.000000     beta(X;X,Z) = beta(X,Z,X)
@ B-freq = 0.015700  C-freq = 0.000000     beta(Y;X,Z) = beta(Y,Z,X)
@ B-freq = 0.015700  C-freq = 0.000000     beta(Z;X,Z) = beta(Z,Z,X)
@ B-freq = 0.000000  C-freq = 0.000000     beta(X;Y,Z) = beta(Z,Y,X)
@ B-freq = 0.000000  C-freq = 0.000000     beta(Y;Y,Z) = beta(Z,Y,Y)
@ B-freq = 0.000000  C-freq = 0.000000     beta(Z;Y,Z) = beta(Z,Z,Y)
@ B-freq = 0.015700  C-freq = 0.000000     beta(X;Y,Z) = beta(X,Z,Y)
@ B-freq = 0.015700  C-freq = 0.000000     beta(Y;Y,Z) = beta(Y,Z,Y)
@ B-freq = 0.015700  C-freq = 0.000000     beta(Z;Y,Z) = beta(Z,Z,Y)
@ B-freq = 0.000000  C-freq = 0.000000     beta(X;Z,Z) = beta(Z,Z,X)
@ B-freq = 0.000000  C-freq = 0.000000     beta(Y;Z,Z) = beta(Z,Z,Y)
@ B-freq = 0.000000  C-freq = 0.000000     beta(X;Z,Z) =    -20.11409817
@ B-freq = 0.000000  C-freq = 0.000000     beta(Y;Z,Z) =    -23.67648102
@ B-freq = 0.000000  C-freq = 0.000000     beta(Z;Z,Z) =     -0.00000000
@ B-freq = 0.015700  C-freq = 0.000000     beta(X;Z,Z) =    -20.21201864
@ B-freq = 0.015700  C-freq = 0.000000     beta(Y;Z,Z) =    -23.75685032
@ B-freq = 0.015700  C-freq = 0.000000     beta(Z;Z,Z) =     -0.00000000
@ B-freq = 0.000000  C-freq = 0.015700     beta(X;X,Z) = beta(X,Z,X)
@ B-freq = 0.000000  C-freq = 0.015700     beta(Y;X,Z) = beta(Y,Z,X)
@ B-freq = 0.000000  C-freq = 0.015700     beta(Z;X,Z) = beta(Z,Z,X)
@ B-freq = 0.015700  C-freq = 0.015700     beta(X;X,Z) = beta(X,Z,X)
@ B-freq = 0.015700  C-freq = 0.015700     beta(Y;X,Z) = beta(Y,Z,X)
@ B-freq = 0.015700  C-freq = 0.015700     beta(Z;X,Z) = beta(Z,Z,X)
@ B-freq = 0.000000  C-freq = 0.015700     beta(X;Y,Z) = beta(X,Z,Y)
@ B-freq = 0.000000  C-freq = 0.015700     beta(Y;Y,Z) = beta(Y,Z,Y)
@ B-freq = 0.000000  C-freq = 0.015700     beta(Z;Y,Z) = beta(Z,Z,Y)
@ B-freq = 0.015700  C-freq = 0.015700     beta(X;Y,Z) = beta(X,Z,Y)
@ B-freq = 0.015700  C-freq = 0.015700     beta(Y;Y,Z) = beta(Y,Z,Y)
@ B-freq = 0.015700  C-freq = 0.015700     beta(Z;Y,Z) = beta(Z,Z,Y)
@ B-freq = 0.000000  C-freq = 0.015700     beta(X;Z,Z) = beta(X,Z,Z)
@ B-freq = 0.000000  C-freq = 0.015700     beta(Y;Z,Z) = beta(Y,Z,Z)
@ B-freq = 0.000000  C-freq = 0.015700     beta(Z;Z,Z) = beta(Z,Z,Z)
@ B-freq = 0.015700  C-freq = 0.015700     beta(X;Z,Z) =    -20.01934041
@ B-freq = 0.015700  C-freq = 0.015700     beta(Y;Z,Z) =    -23.58209356
@ B-freq = 0.015700  C-freq = 0.015700     beta(Z;Z,Z) =     -0.00000000

  Total CPU  time used in RESPONSE:   2 hours 17 minutes  6 seconds
  Total wall time used in RESPONSE:   2 hours 17 minutes 50 seconds


                   .-------------------------------------------.
                   | End of Dynamic Property Section (RESPONS) |
                   `-------------------------------------------'

  Total CPU  time used in DALTON:   2 hours 59 minutes 24 seconds
  Total wall time used in DALTON:   3 hours  0 minutes 21 seconds

 
     Date and time (Linux)  : Wed May 28 01:55:24 2025
     Host name              : xm038                                   
