

     ************************************************************************
     *************** Dalton - An Electronic Structure Program ***************
     ************************************************************************

    This is output from DALTON release Dalton2020.0 (2020)
         ( Web site: http://daltonprogram.org )

   ----------------------------------------------------------------------------

    NOTE:
     
    Dalton is an experimental code for the evaluation of molecular
    properties using (MC)SCF, DFT, CI, and CC wave functions.
    The authors accept no responsibility for the performance of
    the code or for the correctness of the results.
     
    The code (in whole or part) is provided under a licence and
    is not to be reproduced for further distribution without
    the written permission of the authors or their representatives.
     
    See the home page "http://daltonprogram.org" for further information.
     
    If results obtained with this code are published,
    the appropriate citations would be both of:
     
       K. Aidas, C. Angeli, K. L. Bak, V. Bakken, R. Bast,
       L. Boman, O. Christiansen, R. Cimiraglia, S. Coriani,
       P. Dahle, E. K. Dalskov, U. Ekstroem,
       T. Enevoldsen, J. J. Eriksen, P. Ettenhuber, B. Fernandez,
       L. Ferrighi, H. Fliegl, L. Frediani, K. Hald, A. Halkier,
       C. Haettig, H. Heiberg, T. Helgaker, A. C. Hennum,
       H. Hettema, E. Hjertenaes, S. Hoest, I.-M. Hoeyvik,
       M. F. Iozzi, B. Jansik, H. J. Aa. Jensen, D. Jonsson,
       P. Joergensen, J. Kauczor, S. Kirpekar,
       T. Kjaergaard, W. Klopper, S. Knecht, R. Kobayashi, H. Koch,
       J. Kongsted, A. Krapp, K. Kristensen, A. Ligabue,
       O. B. Lutnaes, J. I. Melo, K. V. Mikkelsen, R. H. Myhre,
       C. Neiss, C. B. Nielsen, P. Norman, J. Olsen,
       J. M. H. Olsen, A. Osted, M. J. Packer, F. Pawlowski,
       T. B. Pedersen, P. F. Provasi, S. Reine, Z. Rinkevicius,
       T. A. Ruden, K. Ruud, V. Rybkin, P. Salek, C. C. M. Samson,
       A. Sanchez de Meras, T. Saue, S. P. A. Sauer,
       B. Schimmelpfennig, K. Sneskov, A. H. Steindal,
       K. O. Sylvester-Hvid, P. R. Taylor, A. M. Teale,
       E. I. Tellgren, D. P. Tew, A. J. Thorvaldsen, L. Thoegersen,
       O. Vahtras, M. A. Watson, D. J. D. Wilson, M. Ziolkowski
       and H. Agren,
       "The Dalton quantum chemistry program system",
       WIREs Comput. Mol. Sci. 2014, 4:269–284 (doi: 10.1002/wcms.1172)
     
    and
     
       Dalton, a molecular electronic structure program,
       Release Dalton2020.0 (2020), see http://daltonprogram.org
   ----------------------------------------------------------------------------

    Authors in alphabetical order (Major contribution(s) in parenthesis):

  Kestutis Aidas,           Vilnius University,           Lithuania   (QM/MM)
  Celestino Angeli,         University of Ferrara,        Italy       (NEVPT2)
  Keld L. Bak,              UNI-C,                        Denmark     (AOSOPPA, non-adiabatic coupling, magnetic properties)
  Vebjoern Bakken,          University of Oslo,           Norway      (DALTON; geometry optimizer, symmetry detection)
  Radovan Bast,             UiT The Arctic U. of Norway,  Norway      (DALTON installation and execution frameworks)
  Pablo Baudin,             University of Valencia,       Spain       (Cholesky excitation energies)
  Linus Boman,              NTNU,                         Norway      (Cholesky decomposition and subsystems)
  Bruno N. Cabral Tenorio,  Technical Univ. of Denmark,   Denmark     (Lanczos-based CC methods)
  Ove Christiansen,         Aarhus University,            Denmark     (CC module)
  Renzo Cimiraglia,         University of Ferrara,        Italy       (NEVPT2)
  Sonia Coriani,            Technical Univ. of Denmark,   Denmark     (CC and RESPONS modules)
  Janusz Cukras,            University of Warsaw,         Poland      (MChD in RESPONS)
  Paal Dahle,               University of Oslo,           Norway      (Parallelization)
  Erik K. Dalskov,          UNI-C,                        Denmark     (SOPPA)
  Thomas Enevoldsen,        Univ. of Southern Denmark,    Denmark     (SOPPA)
  Janus J. Eriksen,         Aarhus University,            Denmark     (Polarizable embedding, TDA)
  Rasmus Faber,             Technical Univ. of Denmark,   Denmark     (Vib.avg. NMR w. SOPPA, parallel AO-SOPPA, CVS-CC and EOMCC)
  Tobias Fahleson,          KTH Stockholm,                Sweden      (Damped cubic response)
  Berta Fernandez,          U. of Santiago de Compostela, Spain       (Doublet spin, ESR in RESPONS)
  Lara Ferrighi,            Aarhus University,            Denmark     (PCM Cubic response)
  Heike Fliegl,             University of Oslo,           Norway      (CCSD(R12))
  Luca Frediani,            UiT The Arctic U. of Norway,  Norway      (PCM)
  Emmanuel Fromager,        Univ. Strasbourg,             France      (MC-srDFT)
  Bin Gao,                  UiT The Arctic U. of Norway,  Norway      (Gen1Int library)
  Andre S. P. Gomes,        CNRS/Universite de Lille,     France      (Frozen density embedding)
  Christof Haettig,         Ruhr-University Bochum,       Germany     (CC module)
  Kasper Hald,              Aarhus University,            Denmark     (CC module)
  Asger Halkier,            Aarhus University,            Denmark     (CC module)
  Frederik Beyer Hansen,    University of Copenhagen,     Denmark     (Parallel AO-SOPPA)
  Erik D. Hedegaard,        Univ. of Southern Denmark,    Denmark     (Polarizable embedding, QM/MM, and MC-srDFT)
  Hanne Heiberg,            University of Oslo,           Norway      (Geometry analysis, selected one-electron integrals)
  Trygve Helgaker,          University of Oslo,           Norway      (DALTON; ABACUS, ERI, DFT modules, London, and much more)
  Alf Christian Hennum,     University of Oslo,           Norway      (Parity violation)
  Hinne Hettema,            University of Auckland,       New Zealand (Quadratic response in RESPONS; SIRIUS supersymmetry)
  Eirik Hjertenaes,         NTNU,                         Norway      (Cholesky decomposition)
  Pi A. B. Haase,           University of Copenhagen,     Denmark     (Triplet AO-SOPPA)
  Maria Francesca Iozzi,    University of Oslo,           Norway      (RPA)
  Christoph Jacob           TU Braunschweig               Germany     (Frozen density embedding)
  Brano Jansik              Technical Univ. of Ostrava    Czech Rep.  (DFT cubic response)
  Hans Joergen Aa. Jensen,  Univ. of Southern Denmark,    Denmark     (DALTON; SIRIUS, RESPONS, ABACUS, MC-srDFT, and much more)
  Dan Jonsson,              UiT The Arctic U. of Norway,  Norway      (Cubic response in RESPONS module)
  Poul Joergensen,          Aarhus University,            Denmark     (RESPONS, ABACUS, and CC modules)
  Maciej Kaminski,          University of Warsaw,         Poland      (CPPh in RESPONS)
  Joanna Kauczor,           Linkoeping University,        Sweden      (Complex polarization propagator (CPP) module)
  Sheela Kirpekar,          Univ. of Southern Denmark,    Denmark     (Mass-velocity & Darwin integrals)
  Erik Kjellgren,           Univ. of Southern Denmark,    Denmark     (MC-srDFT)
  Wim Klopper,              KIT Karlsruhe,                Germany     (R12 code in CC, SIRIUS, and ABACUS modules)
  Stefan Knecht,            ETH Zurich,                   Switzerland (Parallel CI and MCSCF, MC-srDFT)
  Rika Kobayashi,           Australian National Univ.,    Australia   (DIIS in CC, London in MCSCF)
  Henrik Koch,              NTNU,                         Norway      (CC module, Cholesky decomposition)
  Jacob Kongsted,           Univ. of Southern Denmark,    Denmark     (Polarizable embedding, polarizable density embedding, QM/MM)
  Andrea Ligabue,           University of Modena,         Italy       (CTOCD, AOSOPPA)
  Nanna H. List             Univ. of Southern Denmark,    Denmark     (Polarizable embedding)
  Ola B. Lutnaes,           University of Oslo,           Norway      (DFT Hessian)
  Juan I. Melo,             University of Buenos Aires,   Argentina   (LRESC, Relativistic Effects on NMR Shieldings)
  Kurt V. Mikkelsen,        University of Copenhagen,     Denmark     (MC-SCRF and QM/MM)
  Rolf H. Myhre,            NTNU,                         Norway      (Subsystems and CC3)
  Christian Neiss,          Univ. Erlangen-Nuernberg,     Germany     (CCSD(R12))
  Christian B. Nielsen,     University of Copenhagen,     Denmark     (QM/MM)
  Patrick Norman,           KTH Stockholm,                Sweden      (Cubic response and complex frequency response in RESPONS)
  Jeppe Olsen,              Aarhus University,            Denmark     (SIRIUS CI/density modules)
  Jogvan Magnus H. Olsen,   Aarhus University,            Denmark     (Polarizable embedding and polarizable density embedding)
  Anders Osted,             Copenhagen University,        Denmark     (QM/MM)
  Martin J. Packer,         University of Sheffield,      UK          (SOPPA)
  Filip Pawlowski,          Kazimierz Wielki University,  Poland      (CC3)
  Morten N. Pedersen,       Univ. of Southern Denmark,    Denmark     (Polarizable embedding)
  Thomas B. Pedersen,       University of Oslo,           Norway      (Cholesky decomposition)
  Patricio F. Provasi,      University of Northeastern,   Argentina   (Analysis of coupling constants in localized orbitals)
  Peter Reinholdt,          Univ. of Southern Denmark,    Denmark     (Polarizable embedding and polarizable density embedding)
  Zilvinas Rinkevicius,     KTH Stockholm,                Sweden      (open-shell DFT, ESR)
  Elias Rudberg,            KTH Stockholm,                Sweden      (DFT grid and basis info)
  Torgeir A. Ruden,         University of Oslo,           Norway      (Numerical derivatives in ABACUS)
  Kenneth Ruud,             UiT The Arctic U. of Norway,  Norway      (DALTON; ABACUS magnetic properties and much more)
  Pawel Salek,              KTH Stockholm,                Sweden      (DALTON; DFT code)
  Claire C. M. Samson       University of Karlsruhe       Germany     (Boys localization, r12 integrals in ERI)
  Alfredo Sanchez de Meras, University of Valencia,       Spain       (CC module, Cholesky decomposition)
  Trond Saue,               Paul Sabatier University,     France      (direct Fock matrix construction)
  Stephan P. A. Sauer,      University of Copenhagen,     Denmark     (SOPPA(CCSD), SOPPA prop., AOSOPPA, vibrational g-factors)
  Bernd Schimmelpfennig,    Forschungszentrum Karlsruhe,  Germany     (AMFI module)
  Anna K. Schnack-Petersen, University of Copenhagen,     Denmark     (RPA(D) and HRPA(D) properties in AOSOPPA)
  Kristian Sneskov,         Aarhus University,            Denmark     (Polarizable embedding, QM/MM)
  Arnfinn H. Steindal,      UiT The Arctic U. of Norway,  Norway      (parallel QM/MM, polarizable embedding)
  Casper Steinmann,         Aalborg University,           Denmark     (QFIT, polarizable embedding)
  K. O. Sylvester-Hvid,     University of Copenhagen,     Denmark     (MC-SCRF)
  Peter R. Taylor,          VLSCI/Univ. of Melbourne,     Australia   (Symmetry handling ABACUS, integral transformation)
  Andrew M. Teale,          University of Nottingham,     England     (DFT-AC, DFT-D)
  David P. Tew,             University of Bristol,        England     (CCSD(R12))
  Julien Toulouse,          Sorbonne Univ.,               France      (MC-srDFT)
  Olav Vahtras,             KTH Stockholm,                Sweden      (Triplet response, spin-orbit, ESR, TDDFT, open-shell DFT)
  Lucas Visscher,           Vrije Universiteit Amsterdam, Netherlands (Frozen density embedding)
  David J. Wilson,          La Trobe University,          Australia   (DFT Hessian and DFT magnetizabilities)
  Hans Agren,               KTH Stockholm,                Sweden      (SIRIUS module, RESPONS, MC-SCRF solvation)
 --------------------------------------------------------------------------------

     Date and time (Linux)  : Thu May  8 22:23:18 2025
     Host name              : xm046                                   

 * Work memory size             :  1310720000 =  9.766 gigabytes.

 * Directories for basis set searches:
   1) /gpfs/projects/rjh/adrian/summer2025/beta_projects/raw_data/NLO/dalton/hf/n4/dipole
   2) /gpfs/projects/rjh/adrian/dalton/build/basis


Compilation information
-----------------------

 Who compiled             | ahurtado
 Host                     | milan2
 System                   | Linux-5.14.0-427.42.1.el9_4.x86_64
 CMake generator          | Unix Makefiles
 Processor                | x86_64
 64-bit integers          | OFF
 MPI                      | ON
 Fortran compiler         | /gpfs/software/openmpi/milan/gcc13.2/4.1.6/bin/mpi
                          | f90
 Fortran compiler version | GNU Fortran (GCC) 13.2.0
 C compiler               | /gpfs/software/openmpi/milan/gcc13.2/4.1.6/bin/mpi
                          | cc
 C compiler version       | gcc (GCC) 13.2.0
 C++ compiler             | /gpfs/software/openmpi/milan/gcc13.2/4.1.6/bin/mpi
                          | cxx
 C++ compiler version     | unknown
 BLAS                     | /gpfs/software/intel/oneAPI/2024_2/mkl/2024.2/lib/
                          | intel64/libmkl_gf_lp64.so;/gpfs/software/intel/one
                          | API/2024_2/mkl/2024.2/lib/intel64/libmkl_sequentia
                          | l.so;/gpfs/software/intel/oneAPI/2024_2/mkl/2024.2
                          | /lib/intel64/libmkl_core.so;/usr/lib64/libpthread.
                          | a;/usr/lib64/libm.so
 LAPACK                   | /gpfs/software/intel/oneAPI/2024_2/mkl/2024.2/lib/
                          | intel64/libmkl_lapack95_lp64.a;/gpfs/software/inte
                          | l/oneAPI/2024_2/mkl/2024.2/lib/intel64/libmkl_gf_l
                          | p64.so
 Static linking           | OFF
 Last Git revision        | 66052b3af5ea7225e31178bf9a8b031913c72190
 Git branch               | (HEAD detached at Dalton2020.0)
 Configuration time       | 2025-04-10 16:02:31.569498

 * MPI parallel run using 96 processes.


   Content of the .dal input file
 ----------------------------------

**DALTON INPUT
.RUN RESPONSE
.DIRECT
**WAVE FUNCTIONS
.HF
**PROPERTIES
**RESPONSE
*QUADRA
.DIPLEN
.FREQUENCIES
2
0.0 0.0233
**END OF DALTON INPUT


   Content of the .mol file
 ----------------------------

BASIS
d-aug-cc-pVQZ
blah
blah
Atomtype=4 Angstrom Charge=0 Nosymmetry
Charge=6 Atoms=8
C_a -1.1882749990853696 5.117256998104514 0.0
C_b -1.5969329996265353 3.809735999842726 0.0
C_c -0.6564090019655506 2.7190129991747667 0.0
C_d -0.9857789998795103 1.387195998766701 0.0
C_e 0.0 0.33539000253089535 0.0
C_f -0.2866469975212757 -1.0046079981775466 0.0
C_g 0.7451960001128884 -2.0162560006291397 0.0
C_h 0.49348400143119636 -3.346346999604479 0.0
Charge=7 Atoms=2
N_a -1.9995219990328295 6.216471001666405 0.0
N_b 1.57848899891635 -4.318030999345519 0.0
Charge=8 Atoms=2
O_a 2.744088997946027 -3.913927002627481 0.0
O_b 1.2323250012939346 -5.50623099814482 0.0
Charge=1 Atoms=10
H_a -0.11499899751206023 5.345406000328604 0.0
H_b -2.670389000828054 3.577750002457105 0.0
H_c -3.0058400016160234 6.118605000075728 0.0
H_d -1.6131520006696491 7.147926002625104 0.0
H_e 0.4128139996006046 2.9826160013713494 0.0
H_f -2.0460389989386774 1.0977839974019534 0.0
H_g 1.0580160019302323 0.6387760023731218 0.0
H_h -1.3358889978770827 -1.3294699989350738 0.0
H_i 1.795708999460371 -1.7003540019438161 0.0
H_j -0.492141997441393 -3.815153001736331 0.0


       *******************************************************************
       *********** Output from DALTON general input processing ***********
       *******************************************************************

 --------------------------------------------------------------------------------
   Overall default print level:    0
   Print level for DALTON.STAT:    1

    Parallel calculation using MPI
    AO-direct calculation (in sections where implemented)
    HERMIT 1- and 2-electron integral sections will be executed
    "Old" integral transformation used (limited to max 255 basis functions)
    Wave function sections will be executed (SIRIUS module)
    Dynamic molecular response properties section will be executed (RESPONSE module)
 --------------------------------------------------------------------------------


   ****************************************************************************
   *************** Output of molecule and basis set information ***************
   ****************************************************************************


    The two title cards from your ".mol" input:
    ------------------------------------------------------------------------
 1: blah                                                                    
 2: blah                                                                    
    ------------------------------------------------------------------------

  Coordinates are entered in Angstrom and converted to atomic units.
          - Conversion factor : 1 bohr = 0.52917721 A

  Atomic type no.    1
  --------------------
  Nuclear charge:   6.00000
  Number of symmetry independent centers:    8
  Number of basis sets to read;    2
  Basis set file used for this atomic type with Z =   6 :
     "/gpfs/projects/rjh/adrian/dalton/build/basis/aug-cc-pVQZ"

  Atomic type no.    2
  --------------------
  Nuclear charge:   7.00000
  Number of symmetry independent centers:    2
  Number of basis sets to read;    2
  Basis set file used for this atomic type with Z =   7 :
     "/gpfs/projects/rjh/adrian/dalton/build/basis/aug-cc-pVQZ"

  Atomic type no.    3
  --------------------
  Nuclear charge:   8.00000
  Number of symmetry independent centers:    2
  Number of basis sets to read;    2
  Basis set file used for this atomic type with Z =   8 :
     "/gpfs/projects/rjh/adrian/dalton/build/basis/aug-cc-pVQZ"

  Atomic type no.    4
  --------------------
  Nuclear charge:   1.00000
  Number of symmetry independent centers:   10
  Number of basis sets to read;    2
  Basis set file used for this atomic type with Z =   1 :
     "/gpfs/projects/rjh/adrian/dalton/build/basis/aug-cc-pVQZ"


                         SYMGRP: Point group information
                         -------------------------------

@    Point group: C1 


                                 Isotopic Masses
                                 ---------------

                           C_a        12.000000
                           C_b        12.000000
                           C_c        12.000000
                           C_d        12.000000
                           C_e        12.000000
                           C_f        12.000000
                           C_g        12.000000
                           C_h        12.000000
                           N_a        14.003074
                           N_b        14.003074
                           O_a        15.994915
                           O_b        15.994915
                           H_a         1.007825
                           H_b         1.007825
                           H_c         1.007825
                           H_d         1.007825
                           H_e         1.007825
                           H_f         1.007825
                           H_g         1.007825
                           H_h         1.007825
                           H_i         1.007825
                           H_j         1.007825

                       Total mass:   166.074228 amu
                       Natural abundance:  90.284 %

 Center-of-mass coordinates (a.u.):    0.090208   -0.225905    0.000000
 Center-of-mass coordinates (Angs):    0.047736   -0.119544    0.000000


  Atoms and basis sets
  --------------------

  Number of atom types :    4
  Total number of atoms:   22

  Basis set used is "d-aug-cc-pVQZ" from the basis set library.

  label    atoms   charge   prim   cont     basis
  ----------------------------------------------------------------------
  C_          8    6.0000   118   105      [14s8p5d4f3g|7s6p5d4f3g]                           
  N_          2    7.0000   118   105      [14s8p5d4f3g|7s6p5d4f3g]                           
  O_          2    8.0000   118   105      [14s8p5d4f3g|7s6p5d4f3g]                           
  H_         10    1.0000    64    62      [8s5p4d3f|6s5p4d3f]                                
  ----------------------------------------------------------------------
  total:     22   88.0000  2056  1880
  ----------------------------------------------------------------------
  Spherical harmonic basis used.

  Threshold for neglecting AO integrals:  1.00D-12

  Max    interatomic separation is   12.9701 Angstrom (   24.5100 Bohr)
  between atoms   16 and   12, "H_d   " and "O_b   ".

  Min HX interatomic separation is    1.0084 Angstrom (    1.9056 Bohr)

  Min YX interatomic separation is    1.2337 Angstrom (    2.3313 Bohr)


  Bond distances (Angstrom):
  --------------------------

                  atom 1     atom 2       distance
                  ------     ------       --------
  bond distance:  C_b        C_a          1.369895
  bond distance:  C_c        C_b          1.440230
  bond distance:  C_d        C_c          1.371941
  bond distance:  C_e        C_d          1.441546
  bond distance:  C_f        C_e          1.370314
  bond distance:  C_g        C_f          1.445037
  bond distance:  C_h        C_g          1.353699
  bond distance:  N_a        C_a          1.366160
  bond distance:  N_b        C_h          1.456505
  bond distance:  O_a        N_b          1.233663
  bond distance:  O_b        N_b          1.237598
  bond distance:  H_a        C_a          1.097257
  bond distance:  H_b        C_b          1.098237
  bond distance:  H_c        N_a          1.011066
  bond distance:  H_d        N_a          1.008410
  bond distance:  H_e        C_c          1.101238
  bond distance:  H_f        C_d          1.099050
  bond distance:  H_g        C_e          1.100655
  bond distance:  H_h        C_f          1.098382
  bond distance:  H_i        C_g          1.096983
  bond distance:  H_j        C_h          1.091438


  Bond angles (degrees):
  ----------------------

                  atom 1     atom 2     atom 3         angle
                  ------     ------     ------         -----
  bond angle:     C_b        C_a        N_a          126.215
  bond angle:     C_b        C_a        H_a          119.357
  bond angle:     N_a        C_a        H_a          114.427
  bond angle:     C_a        C_b        C_c          121.873
  bond angle:     C_a        C_b        H_b          119.551
  bond angle:     C_c        C_b        H_b          118.576
  bond angle:     C_b        C_c        C_d          125.338
  bond angle:     C_b        C_c        H_e          116.922
  bond angle:     C_d        C_c        H_e          117.740
  bond angle:     C_c        C_d        C_e          122.965
  bond angle:     C_c        C_d        H_f          119.159
  bond angle:     C_e        C_d        H_f          117.876
  bond angle:     C_d        C_e        C_f          124.781
  bond angle:     C_d        C_e        H_g          117.144
  bond angle:     C_f        C_e        H_g          118.075
  bond angle:     C_e        C_f        C_g          122.359
  bond angle:     C_e        C_f        H_h          119.278
  bond angle:     C_g        C_f        H_h          118.363
  bond angle:     C_f        C_g        C_h          123.718
  bond angle:     C_f        C_g        H_i          118.830
  bond angle:     C_h        C_g        H_i          117.453
  bond angle:     C_g        C_h        N_b          121.130
  bond angle:     C_g        C_h        H_j          126.154
  bond angle:     N_b        C_h        H_j          112.716
  bond angle:     C_a        N_a        H_c          120.874
  bond angle:     C_a        N_a        H_d          121.043
  bond angle:     H_c        N_a        H_d          118.083
  bond angle:     C_h        N_b        O_a          119.033
  bond angle:     C_h        N_b        O_b          115.604
  bond angle:     O_a        N_b        O_b          125.364




 Principal moments of inertia (u*A**2) and principal axes
 --------------------------------------------------------

   IA      70.354815         -0.316751    0.948509    0.000000
   IB    2757.102656          0.948509    0.316751    0.000000
   IC    2827.457470          0.000000    0.000000    1.000000


 Rotational constants
 --------------------

@    The molecule is planar.

               A                   B                   C

           7183.2896            183.3008            178.7397 MHz
            0.239609            0.006114            0.005962 cm-1


@  Nuclear repulsion energy :  574.625117125708 Hartree


                     .---------------------------------------.
                     | Starting in Integral Section (HERMIT) |
                     `---------------------------------------'



 ***************************************************************************************
 ****************** Output from **INTEGRALS input processing (HERMIT) ******************
 ***************************************************************************************


 - Using defaults, no **INTEGRALS input found

 Default print level:        1

 Calculation of one-electron Hamiltonian integrals.

 Center of mass  (bohr):      0.090207604024     -0.225905365811      0.000000000000
 Operator center (bohr):      0.000000000000      0.000000000000      0.000000000000
 Gauge origin    (bohr):      0.000000000000      0.000000000000      0.000000000000
 Dipole origin   (bohr):      0.000000000000      0.000000000000      0.000000000000


     ************************************************************************
     ************************** Output from HERINT **************************
     ************************************************************************



                      Nuclear contribution to dipole moments
                      --------------------------------------

                 au               Debye          C m (/(10**-30)

      x     -0.00001508        -0.00003833        -0.00012785
      y     -0.00002265        -0.00005757        -0.00019203
      z      0.00000000         0.00000000         0.00000000


  Time used in ONEDRV     is       4.93 seconds
  Time used in HUCKEL     is       1.30 seconds
  Time used in OVERLAP    is       0.75 seconds
  Time used in POPOVLP    is       1.46 seconds
  Time used in R2         is       0.94 seconds
  Time used in R4         is       1.16 seconds
  Time used in DIPLEN     is       1.52 seconds
  Time used in QUADRUP    is       3.09 seconds
  Time used in KINENE     is       1.20 seconds
  Time used in GABGEN     is      40.07 seconds
  Total CPU  time used in HERMIT:  56.42 seconds
  Total wall time used in HERMIT:  56.86 seconds


                        .----------------------------------.
                        | End of Integral Section (HERMIT) |
                        `----------------------------------'



                   .--------------------------------------------.
                   | Starting in Wave Function Section (SIRIUS) |
                   `--------------------------------------------'



@ Primary orbitals are deleted during canonical orthonormalization
@   because of detected numerical linear dependence or too large coefficients.
@ Eigenvalue threshold for num. lin. dep. =  1.00D-06

@  89 MO components are deleted in symmetry    1
 Overlap eigenvalues of the deleted orbitals:
  9.15D-07  9.09D-07  8.66D-07  8.27D-07  7.68D-07
  7.62D-07  7.33D-07  6.81D-07  6.77D-07  6.30D-07
  6.07D-07  5.69D-07  5.27D-07  4.99D-07  4.74D-07
  4.61D-07  4.50D-07  4.31D-07  4.14D-07  3.85D-07
  3.65D-07  3.61D-07  3.38D-07  3.15D-07  2.99D-07
  2.84D-07  2.64D-07  2.57D-07  2.39D-07  2.28D-07
  2.19D-07  2.07D-07  1.81D-07  1.66D-07  1.59D-07
  1.57D-07  1.48D-07  1.42D-07  1.30D-07  1.18D-07
  1.08D-07  1.01D-07  9.58D-08  8.98D-08  8.62D-08
  8.25D-08  7.86D-08  7.41D-08  6.70D-08  6.05D-08
  5.39D-08  4.98D-08  4.71D-08  4.57D-08  3.97D-08
  3.70D-08  3.35D-08  3.10D-08  2.98D-08  2.66D-08
  2.45D-08  2.29D-08  2.12D-08  1.90D-08  1.85D-08
  1.78D-08  1.60D-08  1.50D-08  1.35D-08  1.23D-08
  1.18D-08  1.09D-08  9.20D-09  8.54D-09  8.19D-09
  7.34D-09  7.15D-09  5.91D-09  5.34D-09  5.00D-09
  4.63D-09  3.92D-09  3.43D-09  3.29D-09  2.94D-09
  2.11D-09  1.99D-09  1.76D-09  6.24D-10

 Max MO coeff. of last deleted MO & limit:  3.37D+02  1.00D+03

WARNING: Orbitals have been deleted because of numerical
   linear dependence although not requested in input.

 *** Output from Huckel module :

     Using EWMO model:          T
     Using EHT  model:          F
     Number of Huckel orbitals each symmetry:   70

 EWMO - Energy Weighted Maximum Overlap - is a Huckel type method,
        which normally is better than Extended Huckel Theory.
 Reference: Linderberg and Ohrn, Propagators in Quantum Chemistry (Wiley, 1973)

 Huckel EWMO eigenvalues for symmetry :  1
          -20.684751     -20.683481     -15.677073     -15.674988     -11.359146
          -11.358653     -11.356154     -11.352584     -11.347974     -11.346240
          -11.345424     -11.345374      -1.964162      -1.788082      -1.734786
           -1.596046      -1.447484      -1.387161      -1.184566      -1.157865
           -1.049213      -0.965971      -0.906339      -0.851949      -0.832685
           -0.754031      -0.750101      -0.745427      -0.670108      -0.663157
           -0.633145      -0.596679      -0.585930      -0.560104      -0.541106
           -0.538394      -0.508141      -0.496618      -0.484080      -0.482371
           -0.461805      -0.453057      -0.387938      -0.383238      -0.333745
           -0.273894      -0.234058      -0.229197      -0.209688      -0.201310
           -0.197331      -0.190415      -0.166296      -0.142751      -0.138050
           -0.131383      -0.129230      -0.128854      -0.126770      -0.126476
           -0.124464      -0.123265      -0.109230      -0.103580      -0.097345
           -0.092683      -0.088052      -0.086885      -0.083314      -0.079948

 **********************************************************************
 *SIRIUS* a direct, restricted step, second order MCSCF program       *
 **********************************************************************

 
     Date and time (Linux)  : Thu May  8 22:29:57 2025
     Host name              : xm046                                   

 Title lines from ".mol" input file:
     blah                                                                    
     blah                                                                    

 Print level on unit LUPRI =   2 is   0
 Print level on unit LUW4  =   2 is   5

@    Restricted, closed shell Hartree-Fock calculation.

@    Time-dependent Hartree-Fock calculation (random phase approximation).
 Fock matrices are calculated directly and in parallel without use of integrals on disk.

 Initial molecular orbitals are obtained according to
 ".MOSTART EWMO  " input option

     Wave function specification
     ============================
@    Wave function type        --- HF ---
@    Number of closed shell electrons          88
@    Number of electrons in active shells       0
@    Total charge of the molecule               0

@    Spin multiplicity and 2 M_S                1         0
@    Total number of symmetries                 1 (point group: C1 )
@    Reference state symmetry                   1 (irrep name : A  )

     Orbital specifications
     ======================
@    Abelian symmetry species          All |    1
@                                          |  A  
                                       --- |  ---
@    Occupied SCF orbitals              44 |   44
@    Secondary orbitals               1747 | 1747
@    Total number of orbitals         1791 | 1791
@    Number of basis functions        1880 | 1880

     Optimization information
     ========================
@    Number of configurations                 1
@    Number of orbital rotations          76868
     ------------------------------------------
@    Total number of variables            76869

     Maximum number of Fock   iterations      0
     Maximum number of DIIS   iterations     60
     Maximum number of QC-SCF iterations     60
     Threshold for SCF convergence     1.00D-05

    INFORMATION: Switched to "new" integral transformation (from 1988 ;-) )
    because more than 255 basis functions.


 ***********************************************
 ***** DIIS acceleration of SCF iterations *****
 ***********************************************

 C1-DIIS algorithm; max error vectors =    8

 Iter      Total energy        Error norm    Delta(E)  DIIS dim.
 -----------------------------------------------------------------------------
   1  Screening settings (-IFTHRS, JTDIIS, DIFDEN, times)  -10    1    T  7.72D+02  7.75D+02
@  1    -565.080693800        6.36890D+00   -5.65D+02    1
      Virial theorem: -V/T =      2.006259
@    MULPOP   C_a     1.34; C_b    -0.25; C_c     0.21; C_d    -0.17; C_e     0.13; C_f     0.17; C_g     0.05; C_h     0.84; N_a    -1.27; N_b     4.47; 
@             O_a    -3.00; O_b    -3.42; H_a     0.18; H_b     0.15; H_c     0.20; H_d     0.06; H_e    -0.06; H_f     0.09; H_g     0.08; H_h     0.02; 
@             H_i     0.17; H_j     0.02; 
   1  Level shift: doubly occupied orbital energies shifted by -2.00D-01
 -----------------------------------------------------------------------------
   2  Screening settings (-IFTHRS, JTDIIS, DIFDEN, times)  -10    2    T  7.93D+02  7.95D+02
@  2    -567.024657584        2.88066D+00   -1.94D+00    2
      Virial theorem: -V/T =      2.001637
@    MULPOP   C_a     0.50; C_b    -0.29; C_c    -0.24; C_d    -0.14; C_e    -0.01; C_f    -0.26; C_g    -0.06; C_h    -0.15; N_a    -0.88; N_b     1.55; 
@             O_a    -0.97; O_b    -1.07; H_a     0.24; H_b     0.21; H_c     0.27; H_d     0.19; H_e     0.15; H_f     0.21; H_g     0.21; H_h     0.18; 
@             H_i     0.24; H_j     0.13; 
   2  Level shift: doubly occupied orbital energies shifted by -1.00D-01
 -----------------------------------------------------------------------------
   3  Screening settings (-IFTHRS, JTDIIS, DIFDEN, times)  -10    3    T  7.89D+02  7.91D+02
@  3    -567.400774336        7.52803D-01   -3.76D-01    3
      Virial theorem: -V/T =      2.001075
@    MULPOP   C_a     0.52; C_b    -0.16; C_c    -0.17; C_d    -0.05; C_e     0.09; C_f    -0.14; C_g     0.15; C_h    -0.01; N_a    -0.68; N_b     2.14; 
@             O_a    -1.22; O_b    -1.49; H_a     0.14; H_b     0.10; H_c     0.19; H_d     0.10; H_e     0.05; H_f     0.12; H_g     0.14; H_h     0.05; 
@             H_i     0.13; H_j     0.01; 
   3  Level shift: doubly occupied orbital energies shifted by -5.00D-02
 -----------------------------------------------------------------------------
   4  Screening settings (-IFTHRS, JTDIIS, DIFDEN, times)  -10    4    T  7.84D+02  7.86D+02
@  4    -567.436332354        2.29871D-01   -3.56D-02    4
      Virial theorem: -V/T =      2.003000
@    MULPOP   C_a     0.51; C_b    -0.12; C_c    -0.11; C_d     0.01; C_e     0.16; C_f    -0.13; C_g     0.22; C_h    -0.07; N_a    -0.60; N_b     1.99; 
@             O_a    -1.17; O_b    -1.39; H_a     0.10; H_b     0.05; H_c     0.16; H_d     0.06; H_e     0.01; H_f     0.09; H_g     0.10; H_h     0.02; 
@             H_i     0.11; H_j     0.01; 
   4  Level shift: doubly occupied orbital energies shifted by -2.50D-02
 -----------------------------------------------------------------------------
   5  Screening settings (-IFTHRS, JTDIIS, DIFDEN, times)  -14    5    F  8.13D+02  8.16D+02
@  5    -567.442861475        8.99815D-02   -6.53D-03    5
      Virial theorem: -V/T =      2.002385
@    MULPOP   C_a     0.49; C_b    -0.13; C_c    -0.13; C_d    -0.01; C_e     0.14; C_f    -0.14; C_g     0.20; C_h    -0.06; N_a    -0.60; N_b     2.03; 
@             O_a    -1.17; O_b    -1.42; H_a     0.11; H_b     0.06; H_c     0.16; H_d     0.07; H_e     0.02; H_f     0.10; H_g     0.12; H_h     0.03; 
@             H_i     0.12; H_j     0.01; 
   5  Level shift: doubly occupied orbital energies shifted by -1.25D-02
 -----------------------------------------------------------------------------
   6  Screening settings (-IFTHRS, JTDIIS, DIFDEN, times)  -14    6    T  8.05D+02  8.08D+02
@  6    -567.444405800        4.13987D-02   -1.54D-03    6
      Virial theorem: -V/T =      2.002238
@    MULPOP   C_a     0.48; C_b    -0.13; C_c    -0.13; C_d    -0.01; C_e     0.15; C_f    -0.14; C_g     0.21; C_h    -0.07; N_a    -0.60; N_b     2.02; 
@             O_a    -1.17; O_b    -1.40; H_a     0.11; H_b     0.06; H_c     0.17; H_d     0.07; H_e     0.02; H_f     0.10; H_g     0.11; H_h     0.03; 
@             H_i     0.12; H_j     0.01; 
 -----------------------------------------------------------------------------
   7  Screening settings (-IFTHRS, JTDIIS, DIFDEN, times)  -14    7    T  8.04D+02  8.07D+02
@  7    -567.444790477        2.00321D-02   -3.85D-04    7
      Virial theorem: -V/T =      2.002289
@    MULPOP   C_a     0.48; C_b    -0.13; C_c    -0.13; C_d    -0.01; C_e     0.15; C_f    -0.15; C_g     0.21; C_h    -0.07; N_a    -0.60; N_b     2.02; 
@             O_a    -1.16; O_b    -1.41; H_a     0.11; H_b     0.06; H_c     0.17; H_d     0.07; H_e     0.02; H_f     0.10; H_g     0.12; H_h     0.03; 
@             H_i     0.12; H_j     0.02; 
 -----------------------------------------------------------------------------
   8  Screening settings (-IFTHRS, JTDIIS, DIFDEN, times)  -14    8    T  8.04D+02  8.06D+02
@  8    -567.444871124        8.04058D-03   -8.06D-05    8
      Virial theorem: -V/T =      2.002282
@    MULPOP   C_a     0.48; C_b    -0.13; C_c    -0.13; C_d    -0.01; C_e     0.15; C_f    -0.14; C_g     0.21; C_h    -0.08; N_a    -0.60; N_b     2.03; 
@             O_a    -1.16; O_b    -1.41; H_a     0.11; H_b     0.06; H_c     0.17; H_d     0.07; H_e     0.02; H_f     0.10; H_g     0.12; H_h     0.03; 
@             H_i     0.12; H_j     0.02; 
 -----------------------------------------------------------------------------
   9  Screening settings (-IFTHRS, JTDIIS, DIFDEN, times)  -14    9    T  8.00D+02  8.04D+02
@  9    -567.444882920        2.73880D-03   -1.18D-05    8
      Virial theorem: -V/T =      2.002271
@    MULPOP   C_a     0.48; C_b    -0.13; C_c    -0.13; C_d    -0.01; C_e     0.15; C_f    -0.14; C_g     0.21; C_h    -0.08; N_a    -0.60; N_b     2.02; 
@             O_a    -1.16; O_b    -1.41; H_a     0.11; H_b     0.06; H_c     0.16; H_d     0.07; H_e     0.02; H_f     0.10; H_g     0.12; H_h     0.03; 
@             H_i     0.12; H_j     0.02; 
 -----------------------------------------------------------------------------
  10  Screening settings (-IFTHRS, JTDIIS, DIFDEN, times)  -14   10    T  8.00D+02  8.02D+02
@ 10    -567.444884889        1.33172D-03   -1.97D-06    8
      Virial theorem: -V/T =      2.002273
@    MULPOP   C_a     0.48; C_b    -0.13; C_c    -0.13; C_d    -0.01; C_e     0.15; C_f    -0.14; C_g     0.21; C_h    -0.08; N_a    -0.60; N_b     2.02; 
@             O_a    -1.16; O_b    -1.41; H_a     0.11; H_b     0.06; H_c     0.16; H_d     0.07; H_e     0.02; H_f     0.10; H_g     0.12; H_h     0.03; 
@             H_i     0.12; H_j     0.02; 
 -----------------------------------------------------------------------------
  11  Screening settings (-IFTHRS, JTDIIS, DIFDEN, times)  -14   11    T  7.96D+02  7.98D+02
@ 11    -567.444885413        7.53383D-04   -5.24D-07    8
      Virial theorem: -V/T =      2.002273
@    MULPOP   C_a     0.48; C_b    -0.13; C_c    -0.13; C_d    -0.01; C_e     0.15; C_f    -0.14; C_g     0.21; C_h    -0.08; N_a    -0.60; N_b     2.02; 
@             O_a    -1.16; O_b    -1.41; H_a     0.11; H_b     0.06; H_c     0.16; H_d     0.07; H_e     0.02; H_f     0.10; H_g     0.12; H_h     0.03; 
@             H_i     0.12; H_j     0.02; 
 -----------------------------------------------------------------------------
  12  Screening settings (-IFTHRS, JTDIIS, DIFDEN, times)  -14   12    T  7.96D+02  7.98D+02
@ 12    -567.444885583        2.25290D-04   -1.70D-07    8
      Virial theorem: -V/T =      2.002273
@    MULPOP   C_a     0.48; C_b    -0.13; C_c    -0.13; C_d    -0.01; C_e     0.15; C_f    -0.14; C_g     0.21; C_h    -0.08; N_a    -0.60; N_b     2.02; 
@             O_a    -1.16; O_b    -1.41; H_a     0.11; H_b     0.06; H_c     0.16; H_d     0.07; H_e     0.02; H_f     0.10; H_g     0.12; H_h     0.03; 
@             H_i     0.12; H_j     0.02; 
 -----------------------------------------------------------------------------
  13  Screening settings (-IFTHRS, JTDIIS, DIFDEN, times)  -14   13    T  7.90D+02  7.92D+02
@ 13    -567.444885599        1.02130D-04   -1.60D-08    8
      Virial theorem: -V/T =      2.002273
@    MULPOP   C_a     0.48; C_b    -0.13; C_c    -0.13; C_d    -0.01; C_e     0.15; C_f    -0.14; C_g     0.21; C_h    -0.08; N_a    -0.60; N_b     2.02; 
@             O_a    -1.16; O_b    -1.41; H_a     0.11; H_b     0.06; H_c     0.16; H_d     0.07; H_e     0.02; H_f     0.10; H_g     0.12; H_h     0.03; 
@             H_i     0.12; H_j     0.02; 
 -----------------------------------------------------------------------------
  14  Screening settings (-IFTHRS, JTDIIS, DIFDEN, times)  -14   14    T  7.87D+02  7.89D+02
@ 14    -567.444885600        2.96427D-05   -1.48D-09    8
      Virial theorem: -V/T =      2.002273
@    MULPOP   C_a     0.48; C_b    -0.13; C_c    -0.13; C_d    -0.01; C_e     0.15; C_f    -0.14; C_g     0.21; C_h    -0.08; N_a    -0.60; N_b     2.02; 
@             O_a    -1.16; O_b    -1.41; H_a     0.11; H_b     0.06; H_c     0.16; H_d     0.07; H_e     0.02; H_f     0.10; H_g     0.12; H_h     0.03; 
@             H_i     0.12; H_j     0.02; 
 -----------------------------------------------------------------------------
  15  Screening settings (-IFTHRS, JTDIIS, DIFDEN, times)  -14   15    T  7.86D+02  7.88D+02
@ 15    -567.444885600        1.03952D-05   -1.55D-10    8
      Virial theorem: -V/T =      2.002273
@    MULPOP   C_a     0.48; C_b    -0.13; C_c    -0.13; C_d    -0.01; C_e     0.15; C_f    -0.14; C_g     0.21; C_h    -0.08; N_a    -0.60; N_b     2.02; 
@             O_a    -1.16; O_b    -1.41; H_a     0.11; H_b     0.06; H_c     0.16; H_d     0.07; H_e     0.02; H_f     0.10; H_g     0.12; H_h     0.03; 
@             H_i     0.12; H_j     0.02; 
 -----------------------------------------------------------------------------
  16  Screening settings (-IFTHRS, JTDIIS, DIFDEN, times)  -14   16    T  7.86D+02  7.89D+02
@ 16    -567.444885600        5.05823D-06   -1.89D-11    8

@ *** DIIS converged in  16 iterations !
@     Converged SCF energy, gradient:   -567.444885600399    5.06D-06
    - total time used in SIRFCK :              0.00 seconds


 *** SCF orbital energy analysis ***

 Only the 20 lowest virtual orbital energies printed in each symmetry.

 Number of electrons :   88
 Orbital occupations :   44

 Sym       Hartree-Fock orbital energies

1 A     -20.57815948   -20.57536973   -15.82984093   -15.60405077   -11.31794851
        -11.28208335   -11.27833837   -11.27293369   -11.27182373   -11.24736030
        -11.24045976   -11.23789231    -1.57015199    -1.36783337    -1.25108408
         -1.13496811    -1.10755699    -1.06308343    -1.00249978    -0.93562834
         -0.85434954    -0.80563626    -0.78116569    -0.77652148    -0.73379824
         -0.72911170    -0.70635068    -0.68935247    -0.68840936    -0.64296338
         -0.63665702    -0.59473239    -0.56950146    -0.55975799    -0.53829919
         -0.53460893    -0.51770756    -0.48447929    -0.47467385    -0.47167233
         -0.43449800    -0.43282679    -0.35900819    -0.27022766    -0.00189667
          0.00387217     0.00756753     0.01040104     0.01168289     0.01450063
          0.01676749     0.01790175     0.02006724     0.02107047     0.02127151
          0.02249819     0.02305592     0.02604244     0.02916385     0.02942493
          0.03029689     0.03170593     0.03278971     0.03417164

    E(LUMO) :    -0.00189667 au (symmetry 1)
  - E(HOMO) :    -0.27022766 au (symmetry 1)
  ------------------------------------------
    gap     :     0.26833099 au

 --- Writing SIRIFC interface file

 CPU and wall time for SCF :   13394.960   13438.177


                       .-----------------------------------.
                       | --- Final results from SIRIUS --- |
                       `-----------------------------------'


@    Spin multiplicity:           1
@    Spatial symmetry:            1 ( irrep  A   in C1  )
@    Total charge of molecule:    0

@    Final HF energy:            -567.444885600399                 
@    Nuclear repulsion:           574.625117125708
@    Electronic energy:         -1142.070002726106

@    Final gradient norm:           0.000005058227

 
     Date and time (Linux)  : Fri May  9 02:14:08 2025
     Host name              : xm046                                   

File label for MO orbitals:   9May25   FOCKDIIS

 (Only coefficients > 0.0100 are printed.)

 Molecular orbitals for symmetry species 1  (A  )
 ------------------------------------------------

    Orbital        35       36       37       38       39       40       41
   2 C_a :1s     0.0000  -0.0384   0.0128   0.0000  -0.0064   0.0011   0.0000
   4 C_a :1s    -0.0000  -0.0299   0.0237  -0.0000  -0.0120   0.0079   0.0000
   6 C_a :1s     0.0000   0.0104   0.0075   0.0000   0.0274   0.0150   0.0000
   7 C_a :1s     0.0000   0.0238   0.0463   0.0000   0.0017  -0.0219  -0.0000
   8 C_a :2px    0.0000   0.1525  -0.0500  -0.0000   0.0014  -0.0007   0.0000
   9 C_a :2py    0.0000   0.1061  -0.0189   0.0000   0.0113  -0.0019   0.0000
  10 C_a :2pz    0.4282   0.0000   0.0000  -0.0492   0.0000  -0.0000  -0.0258
  14 C_a :2px    0.0000   0.0151  -0.0092   0.0000   0.0005  -0.0000   0.0000
  15 C_a :2py    0.0000   0.0168  -0.0246  -0.0000   0.0010   0.0066  -0.0000
  16 C_a :2pz    0.0240   0.0000   0.0000  -0.0038   0.0000  -0.0000  -0.0116
  17 C_a :2px   -0.0000  -0.0069   0.0096   0.0000  -0.0069  -0.0276  -0.0000
  18 C_a :2py    0.0000  -0.0054   0.0023  -0.0000   0.0090  -0.0100   0.0000
  19 C_a :2pz   -0.0786   0.0000   0.0000  -0.0373   0.0000  -0.0000  -0.1074
  20 C_a :2px   -0.0000  -0.0091  -0.0026   0.0000  -0.0109   0.0078  -0.0000
  21 C_a :2py    0.0000   0.0045   0.0118   0.0000   0.0054  -0.0237  -0.0000
  22 C_a :2pz   -0.1261   0.0000   0.0000   0.0635   0.0000   0.0000  -0.0362
  23 C_a :2px    0.0000   0.0001   0.0167   0.0000   0.0187   0.0121   0.0000
  24 C_a :2py   -0.0000   0.0124  -0.0212  -0.0000  -0.0114  -0.0122  -0.0000
  34 C_a :3d1+  -0.0109  -0.0000  -0.0000   0.0024  -0.0000  -0.0000  -0.0019
  36 C_a :3d2-   0.0000  -0.0262   0.0161  -0.0000   0.0015   0.0035   0.0000
  37 C_a :3d1-  -0.0141   0.0000  -0.0000   0.0026   0.0000   0.0000   0.0044
  39 C_a :3d1+  -0.0333  -0.0000  -0.0000   0.0052  -0.0000  -0.0000   0.0022
  40 C_a :3d2+   0.0000  -0.0127   0.0052  -0.0000   0.0062  -0.0063   0.0000
  41 C_a :3d2-  -0.0000  -0.0056   0.0163   0.0000   0.0017  -0.0032  -0.0000
  42 C_a :3d1-  -0.2194   0.0000   0.0000   0.1483   0.0000   0.0000  -0.0081
  43 C_a :3d0   -0.0000  -0.0216  -0.0048  -0.0000   0.0034  -0.0118  -0.0000
  44 C_a :3d1+   0.1255  -0.0000  -0.0000  -0.0183  -0.0000  -0.0000   0.0331
  45 C_a :3d2+  -0.0000  -0.0285   0.0060  -0.0000   0.0090  -0.0418  -0.0000
  47 C_a :3d1-   0.0106  -0.0000   0.0000  -0.0093  -0.0000  -0.0000   0.0060
  49 C_a :3d1+   0.0281  -0.0000  -0.0000  -0.0318  -0.0000   0.0000   0.0134
  50 C_a :3d2+  -0.0000   0.0002   0.0002  -0.0000  -0.0030   0.0171  -0.0000
  65 C_a :4f3-   0.0000   0.0183  -0.0166  -0.0000  -0.0044   0.0046   0.0000
  66 C_a :4f2-   0.0245  -0.0000  -0.0000  -0.0057  -0.0000  -0.0000  -0.0019
  68 C_a :4f0    0.0193  -0.0000  -0.0000  -0.0037  -0.0000   0.0000  -0.0042
  70 C_a :4f2+   0.0332  -0.0000  -0.0000  -0.0039  -0.0000   0.0000  -0.0002
  72 C_a :4f3-  -0.0000   0.0112  -0.0212  -0.0000  -0.0171  -0.0002  -0.0000
  73 C_a :4f2-   0.0124  -0.0000   0.0000  -0.0422  -0.0000  -0.0000  -0.0106
  75 C_a :4f0    0.0176  -0.0000   0.0000  -0.0219  -0.0000  -0.0000  -0.0099
  77 C_a :4f2+  -0.0436   0.0000   0.0000   0.0386   0.0000   0.0000  -0.0171
  78 C_a :4f3+   0.0000   0.0027   0.0056   0.0000  -0.0016   0.0184   0.0000
  97 C_a :5g4-  -0.0000  -0.0107   0.0075   0.0000   0.0007   0.0001  -0.0000
  98 C_a :5g3-  -0.0142   0.0000   0.0000   0.0044   0.0000   0.0000   0.0012
 107 C_b :1s     0.0000  -0.0321   0.0624  -0.0000   0.0103  -0.0015  -0.0000
 109 C_b :1s    -0.0000  -0.0632   0.0451  -0.0000  -0.0095   0.0038  -0.0000
 110 C_b :1s     0.0000   0.0037  -0.0065   0.0000   0.0106   0.0041   0.0000
 111 C_b :1s     0.0000   0.0068  -0.0166  -0.0000   0.0147   0.0101   0.0000
 112 C_b :1s     0.0000   0.0326  -0.0001   0.0000   0.0158  -0.0374  -0.0000
 113 C_b :2px    0.0000  -0.3283   0.2327  -0.0000   0.0140  -0.0004   0.0000
 114 C_b :2py   -0.0000  -0.0279  -0.0802   0.0000  -0.0217   0.0029  -0.0000
 115 C_b :2pz    0.2810   0.0000   0.0000   0.0800   0.0000   0.0000  -0.2029
 119 C_b :2px   -0.0000  -0.0099   0.0154  -0.0000  -0.0015   0.0016   0.0000
 120 C_b :2py    0.0000   0.0138  -0.0244  -0.0000   0.0021  -0.0066  -0.0000
 121 C_b :2pz    0.0288   0.0000   0.0000   0.0030   0.0000   0.0000  -0.0176
 122 C_b :2px    0.0000   0.0079  -0.0187   0.0000   0.0461  -0.0365   0.0000
 123 C_b :2py   -0.0000   0.0104   0.0167   0.0000  -0.0206   0.0219  -0.0000
 124 C_b :2pz   -0.1760   0.0000   0.0000   0.1082   0.0000  -0.0000  -0.0533
 125 C_b :2px    0.0000   0.0184  -0.0050  -0.0000  -0.0002   0.0034   0.0000
 126 C_b :2py    0.0000  -0.0027   0.0170  -0.0000   0.0021  -0.0041  -0.0000
 127 C_b :2pz    0.0638   0.0000  -0.0000  -0.0691  -0.0000  -0.0000   0.0802
 128 C_b :2px   -0.0000   0.0050  -0.0020  -0.0000  -0.0138   0.0031  -0.0000
 129 C_b :2py    0.0000  -0.0094   0.0346   0.0000   0.0187   0.0193   0.0000
 130 C_b :2pz    0.0115   0.0000  -0.0000  -0.0051  -0.0000  -0.0000   0.0105
 140 C_b :3d2+  -0.0000   0.0140  -0.0086   0.0000   0.0005  -0.0003  -0.0000
 141 C_b :3d2-   0.0000  -0.0118   0.0105  -0.0000  -0.0017   0.0055   0.0000
 143 C_b :3d0   -0.0000  -0.0161   0.0068   0.0000  -0.0002   0.0008   0.0000
 144 C_b :3d1+   0.0240   0.0000   0.0000   0.0057   0.0000  -0.0000  -0.0182
 145 C_b :3d2+  -0.0000  -0.0600   0.0549   0.0000  -0.0032  -0.0123   0.0000
 146 C_b :3d2-  -0.0000  -0.0202  -0.0162  -0.0000   0.0068   0.0020  -0.0000
 147 C_b :3d1-  -0.0447  -0.0000  -0.0000   0.1342  -0.0000   0.0000   0.1294
 148 C_b :3d0   -0.0000  -0.0110   0.0085   0.0000   0.0061   0.0346   0.0000
 149 C_b :3d1+  -0.1346   0.0000   0.0000   0.0457   0.0000   0.0000  -0.0162
 150 C_b :3d2+   0.0000  -0.0076   0.0162   0.0000  -0.0143   0.0322   0.0000
 151 C_b :3d2-  -0.0000  -0.0067  -0.0127  -0.0000   0.0007   0.0215   0.0000
 152 C_b :3d1-   0.0291  -0.0000  -0.0000  -0.0314  -0.0000   0.0000   0.0035
 154 C_b :3d1+  -0.0054   0.0000   0.0000   0.0380   0.0000  -0.0000   0.0102
 155 C_b :3d2+   0.0000  -0.0117  -0.0101   0.0000   0.0052  -0.0038   0.0000
 170 C_b :4f3-   0.0000   0.0020  -0.0095  -0.0000  -0.0023   0.0103   0.0000
 171 C_b :4f2-   0.0284  -0.0000  -0.0000  -0.0034  -0.0000   0.0000  -0.0067
 173 C_b :4f0    0.0347  -0.0000  -0.0000  -0.0051  -0.0000   0.0000  -0.0099
 175 C_b :4f2+   0.0523  -0.0000   0.0000  -0.0080  -0.0000  -0.0000  -0.0186
 176 C_b :4f3+  -0.0000   0.0030   0.0212  -0.0000  -0.0063  -0.0040   0.0000
 177 C_b :4f3-   0.0000  -0.0033  -0.0137   0.0000   0.0219   0.0406   0.0000
 178 C_b :4f2-  -0.0701   0.0000   0.0000   0.0690   0.0000   0.0000  -0.0132
 179 C_b :4f1-   0.0000   0.0147  -0.0012   0.0000  -0.0162   0.0071   0.0000
 180 C_b :4f0   -0.0409   0.0000   0.0000   0.0331   0.0000   0.0000  -0.0254
 181 C_b :4f1+  -0.0000  -0.0022   0.0014  -0.0000   0.0110  -0.0013  -0.0000
 182 C_b :4f2+  -0.0709   0.0000   0.0000   0.0498   0.0000   0.0000  -0.0116
 183 C_b :4f3+  -0.0000  -0.0040  -0.0002  -0.0000   0.0175   0.0093   0.0000
 212 C_c :1s    -0.0000  -0.0379   0.0616  -0.0000  -0.0108   0.0001   0.0000
 214 C_c :1s    -0.0000  -0.0545   0.0978  -0.0000  -0.0160  -0.0386   0.0000
 215 C_c :1s     0.0000  -0.0025  -0.0007  -0.0000   0.0303   0.0072   0.0000
 216 C_c :1s     0.0000   0.0074  -0.0203  -0.0000   0.0150   0.0138   0.0000
 217 C_c :1s    -0.0000   0.0128  -0.0302  -0.0000   0.0062  -0.0075   0.0000
 218 C_c :2px   -0.0000   0.3112  -0.3197  -0.0000  -0.0100  -0.0000   0.0000
 219 C_c :2py    0.0000   0.0082  -0.0371  -0.0000   0.0332  -0.0029   0.0000
 220 C_c :2pz    0.1501   0.0000  -0.0000   0.2326  -0.0000   0.0000  -0.2885
 224 C_c :2px   -0.0000   0.0134  -0.0227  -0.0000   0.0043   0.0033  -0.0000
 225 C_c :2py    0.0000  -0.0169  -0.0082  -0.0000   0.0018   0.0255   0.0000
 226 C_c :2pz    0.0186   0.0000  -0.0000   0.0170  -0.0000   0.0000  -0.0242
 227 C_c :2px   -0.0000  -0.0288   0.0134  -0.0000   0.0122  -0.0018  -0.0000
 228 C_c :2py    0.0000  -0.0050  -0.0014   0.0000   0.0071  -0.0491  -0.0000
 229 C_c :2pz    0.0204   0.0000  -0.0000   0.0952  -0.0000   0.0000   0.0491
 230 C_c :2px   -0.0000  -0.0021   0.0359  -0.0000  -0.0547  -0.0015  -0.0000
 231 C_c :2py    0.0000  -0.0039   0.0031  -0.0000   0.0042   0.0223  -0.0000
 232 C_c :2pz    0.0172  -0.0000   0.0000  -0.0091   0.0000   0.0000  -0.0362
 233 C_c :2px   -0.0000  -0.0043  -0.0147  -0.0000  -0.0354  -0.0208  -0.0000
 234 C_c :2py   -0.0000  -0.0170  -0.0316  -0.0000  -0.0164  -0.0092  -0.0000
 241 C_c :3d2-  -0.0000   0.0071  -0.0121   0.0000  -0.0019   0.0003   0.0000
 245 C_c :3d2+   0.0000   0.0123  -0.0149  -0.0000  -0.0001   0.0006   0.0000
 246 C_c :3d2-  -0.0000  -0.0177   0.0414  -0.0000   0.0085  -0.0046   0.0000
 247 C_c :3d1-   0.0268  -0.0000  -0.0000  -0.0299  -0.0000   0.0000  -0.0035
 248 C_c :3d0    0.0000  -0.0149   0.0182   0.0000  -0.0032  -0.0028  -0.0000
 249 C_c :3d1+  -0.0236   0.0000   0.0000  -0.0071   0.0000  -0.0000   0.0239
 250 C_c :3d2+  -0.0000  -0.0478   0.0674   0.0000  -0.0002  -0.0106   0.0000
 251 C_c :3d2-  -0.0000   0.0104   0.0262  -0.0000  -0.0455   0.0353  -0.0000
 252 C_c :3d1-   0.0276  -0.0000  -0.0000   0.0034  -0.0000   0.0000   0.0709
 253 C_c :3d0   -0.0000  -0.0074   0.0113   0.0000  -0.0027  -0.0060  -0.0000
 254 C_c :3d1+   0.0235  -0.0000   0.0000  -0.0158   0.0000  -0.0000  -0.1095
 255 C_c :3d2+   0.0000  -0.0100   0.0230   0.0000  -0.0032   0.0115  -0.0000
 256 C_c :3d2-   0.0000   0.0041   0.0123   0.0000   0.0155   0.0211   0.0000
 257 C_c :3d1-   0.0114  -0.0000   0.0000  -0.0373  -0.0000  -0.0000  -0.0059
 258 C_c :3d0    0.0000   0.0025   0.0065  -0.0000   0.0134   0.0168   0.0000
 259 C_c :3d1+  -0.0327   0.0000   0.0000   0.0019   0.0000  -0.0000  -0.0342
 260 C_c :3d2+   0.0000  -0.0007  -0.0172   0.0000  -0.0052  -0.0051   0.0000
 275 C_c :4f3-  -0.0000  -0.0210  -0.0121   0.0000  -0.0045   0.0012   0.0000
 276 C_c :4f2-   0.0012   0.0000   0.0000   0.0144   0.0000  -0.0000  -0.0145
 277 C_c :4f1-  -0.0000  -0.0017  -0.0026  -0.0000  -0.0079   0.0120   0.0000
 278 C_c :4f0    0.0131   0.0000   0.0000   0.0075   0.0000  -0.0000  -0.0216
 280 C_c :4f2+   0.0352  -0.0000   0.0000   0.0029   0.0000  -0.0000  -0.0364
 281 C_c :4f3+   0.0000   0.0201   0.0068  -0.0000   0.0094  -0.0079  -0.0000
 282 C_c :4f3-  -0.0000  -0.0311  -0.0208  -0.0000   0.0259  -0.0513  -0.0000
 283 C_c :4f2-  -0.0055  -0.0000  -0.0000  -0.0301  -0.0000  -0.0000  -0.0317
 284 C_c :4f1-   0.0000   0.0044  -0.0013   0.0000  -0.0169  -0.0108   0.0000
 285 C_c :4f0    0.0243  -0.0000  -0.0000   0.0189  -0.0000   0.0000   0.0075
 287 C_c :4f2+   0.0056  -0.0000  -0.0000   0.0707  -0.0000   0.0000   0.0518
 288 C_c :4f3+   0.0000   0.0149   0.0130   0.0000  -0.0072   0.0129   0.0000
 314 C_c :5g3+  -0.0180   0.0000  -0.0000   0.0023   0.0000   0.0000   0.0056
 315 C_c :5g4+  -0.0000  -0.0138  -0.0091   0.0000  -0.0049   0.0034  -0.0000
 317 C_d :1s     0.0000   0.0113   0.0594   0.0000   0.0178  -0.0068   0.0000
 319 C_d :1s    -0.0000  -0.0217   0.1081  -0.0000  -0.0293  -0.0003   0.0000
 321 C_d :1s     0.0000   0.0054  -0.0184  -0.0000  -0.0032   0.0008   0.0000
 322 C_d :1s    -0.0000   0.0059  -0.0288  -0.0000   0.0043  -0.0057  -0.0000
 323 C_d :2px    0.0000  -0.0462   0.4113   0.0000   0.0325  -0.0112  -0.0000
 324 C_d :2py   -0.0000  -0.1322   0.0086   0.0000  -0.0475   0.0099   0.0000
 325 C_d :2pz    0.0945  -0.0000  -0.0000   0.3219  -0.0000   0.0000  -0.2458
 329 C_d :2px    0.0000  -0.0042   0.0341   0.0000  -0.0048  -0.0018  -0.0000
 330 C_d :2py   -0.0000  -0.0298  -0.0009   0.0000   0.0059   0.0091   0.0000
 331 C_d :2pz    0.0099  -0.0000   0.0000   0.0278  -0.0000   0.0000  -0.0191
 332 C_d :2px    0.0000  -0.0030  -0.0337  -0.0000   0.0247   0.0317   0.0000
 333 C_d :2py   -0.0000   0.0125  -0.0014  -0.0000   0.0107   0.0579  -0.0000
 334 C_d :2pz    0.0631  -0.0000  -0.0000   0.0000  -0.0000   0.0000  -0.0053
 335 C_d :2px   -0.0000   0.0011  -0.0359  -0.0000  -0.0073   0.0262   0.0000
 336 C_d :2py    0.0000   0.0106  -0.0071   0.0000   0.0095   0.0076   0.0000
 337 C_d :2pz   -0.0551  -0.0000  -0.0000  -0.0057  -0.0000   0.0000  -0.0327
 338 C_d :2px    0.0000   0.0046  -0.0061   0.0000   0.0254  -0.0126  -0.0000
 339 C_d :2py   -0.0000  -0.0034  -0.0263  -0.0000  -0.0145  -0.0006  -0.0000
 340 C_d :2pz   -0.0121  -0.0000   0.0000   0.0034   0.0000   0.0000  -0.0185
 346 C_d :3d2-  -0.0000   0.0023  -0.0144  -0.0000  -0.0019   0.0005   0.0000
 350 C_d :3d2+   0.0000   0.0037  -0.0165  -0.0000   0.0014  -0.0002   0.0000
 351 C_d :3d2-   0.0000  -0.0104   0.0443  -0.0000   0.0061   0.0009   0.0000
 352 C_d :3d1-   0.0253  -0.0000   0.0000  -0.0163   0.0000  -0.0000  -0.0356
 353 C_d :3d0   -0.0000  -0.0046   0.0170  -0.0000  -0.0020   0.0013   0.0000
 354 C_d :3d1+   0.0002   0.0000  -0.0000   0.0319  -0.0000   0.0000  -0.0138
 355 C_d :3d2+  -0.0000  -0.0047   0.0747  -0.0000  -0.0133  -0.0217   0.0000
 356 C_d :3d2-  -0.0000  -0.0171  -0.0076  -0.0000   0.0439   0.0019   0.0000
 357 C_d :3d1-  -0.1005  -0.0000   0.0000   0.0358   0.0000   0.0000   0.0347
 358 C_d :3d0    0.0000  -0.0070   0.0095   0.0000   0.0205  -0.0155  -0.0000
 359 C_d :3d1+   0.0174  -0.0000  -0.0000  -0.0685  -0.0000   0.0000  -0.0311
 360 C_d :3d2+   0.0000   0.0040   0.0301   0.0000  -0.0049  -0.0081   0.0000
 361 C_d :3d2-  -0.0000  -0.0082  -0.0054  -0.0000  -0.0063  -0.0147  -0.0000
 362 C_d :3d1-  -0.0019  -0.0000  -0.0000  -0.0087  -0.0000  -0.0000  -0.0391
 363 C_d :3d0    0.0000  -0.0061  -0.0092   0.0000   0.0153  -0.0138   0.0000
 364 C_d :3d1+   0.0092  -0.0000  -0.0000  -0.0263  -0.0000   0.0000   0.0375
 365 C_d :3d2+   0.0000  -0.0057   0.0086   0.0000   0.0216   0.0126  -0.0000
 380 C_d :4f3-   0.0000  -0.0324   0.0097   0.0000   0.0147  -0.0090  -0.0000
 381 C_d :4f2-   0.0118  -0.0000   0.0000   0.0081   0.0000  -0.0000  -0.0274
 382 C_d :4f1-  -0.0000  -0.0087  -0.0029  -0.0000  -0.0113   0.0002  -0.0000
 383 C_d :4f0    0.0048   0.0000   0.0000   0.0226   0.0000  -0.0000  -0.0165
 385 C_d :4f2+  -0.0102   0.0000   0.0000   0.0428   0.0000  -0.0000  -0.0240
 386 C_d :4f3+  -0.0000   0.0260   0.0072   0.0000  -0.0099  -0.0216  -0.0000
 387 C_d :4f3-   0.0000  -0.0145   0.0142   0.0000   0.0352  -0.0018   0.0000
 388 C_d :4f2-  -0.0126  -0.0000  -0.0000   0.0238  -0.0000   0.0000   0.0380
 389 C_d :4f1-   0.0000   0.0053  -0.0006   0.0000  -0.0161   0.0008   0.0000
 390 C_d :4f0    0.0104   0.0000   0.0000   0.0224   0.0000   0.0000  -0.0156
 392 C_d :4f2+   0.0674  -0.0000  -0.0000  -0.0100  -0.0000   0.0000   0.0332
 393 C_d :4f3+  -0.0000   0.0264  -0.0071  -0.0000  -0.0041  -0.0777   0.0000
 412 C_d :5g4-   0.0000  -0.0145   0.0086   0.0000   0.0074  -0.0034  -0.0000
 413 C_d :5g3-  -0.0004   0.0000   0.0000   0.0046   0.0000   0.0000  -0.0132
 419 C_d :5g3+  -0.0056   0.0000   0.0000   0.0132   0.0000  -0.0000  -0.0038
 420 C_d :5g4+  -0.0000   0.0217  -0.0016   0.0000  -0.0027  -0.0130   0.0000
 422 C_e :1s     0.0000   0.0116   0.0898   0.0000  -0.0238  -0.0078   0.0000
 424 C_e :1s     0.0000   0.0467   0.1003   0.0000   0.0010  -0.0568   0.0000
 425 C_e :1s     0.0000   0.0047   0.0007  -0.0000  -0.0092   0.0201   0.0000
 426 C_e :1s     0.0000   0.0015  -0.0256  -0.0000   0.0045   0.0440   0.0000
 427 C_e :1s    -0.0000  -0.0105  -0.0276  -0.0000  -0.0039   0.0470  -0.0000
 428 C_e :2px    0.0000  -0.1674  -0.3769   0.0000  -0.0185   0.0230   0.0000
 429 C_e :2py    0.0000  -0.1545   0.0290   0.0000   0.0820   0.0097  -0.0000
 430 C_e :2pz    0.0502  -0.0000   0.0000   0.3799  -0.0000   0.0000  -0.0163
 434 C_e :2px    0.0000  -0.0083  -0.0316   0.0000  -0.0168   0.0031  -0.0000
 435 C_e :2py    0.0000  -0.0209   0.0071   0.0000   0.0091   0.0143  -0.0000
 436 C_e :2pz   -0.0017  -0.0000   0.0000   0.0398  -0.0000   0.0000  -0.0010
 437 C_e :2px    0.0000   0.0027   0.0224   0.0000  -0.0097   0.0678  -0.0000
 438 C_e :2py    0.0000   0.0235   0.0039   0.0000  -0.0192  -0.0085   0.0000
 439 C_e :2pz    0.0838  -0.0000  -0.0000  -0.0156  -0.0000   0.0000   0.0284
 440 C_e :2px   -0.0000   0.0098   0.0386  -0.0000  -0.0271  -0.0200  -0.0000
 441 C_e :2py   -0.0000   0.0075   0.0165   0.0000  -0.0195   0.0046  -0.0000
 442 C_e :2pz    0.0024  -0.0000   0.0000   0.0013  -0.0000   0.0000   0.0311
 443 C_e :2px    0.0000   0.0056   0.0142   0.0000   0.0448   0.0290   0.0000
 444 C_e :2py    0.0000   0.0029   0.0269   0.0000   0.0076   0.0195   0.0000
 445 C_e :2pz   -0.0013  -0.0000   0.0000  -0.0128  -0.0000   0.0000   0.0260
 451 C_e :3d2-   0.0000  -0.0061  -0.0134   0.0000  -0.0031   0.0013   0.0000
 455 C_e :3d2+   0.0000  -0.0088  -0.0146   0.0000   0.0010   0.0015   0.0000
 456 C_e :3d2-   0.0000   0.0208   0.0442  -0.0000  -0.0076  -0.0094  -0.0000
 457 C_e :3d1-   0.0055   0.0000   0.0000  -0.0174   0.0000  -0.0000  -0.0367
 458 C_e :3d0   -0.0000   0.0100   0.0169   0.0000   0.0041  -0.0153  -0.0000
 459 C_e :3d1+   0.0023  -0.0000  -0.0000  -0.0312  -0.0000   0.0000   0.0135
 460 C_e :3d2+  -0.0000   0.0313   0.0683  -0.0000  -0.0349  -0.0025   0.0000
 461 C_e :3d2-   0.0000   0.0199   0.0027   0.0000  -0.0179   0.0239   0.0000
 462 C_e :3d1-  -0.0289   0.0000   0.0000   0.0561   0.0000   0.0000   0.0925
 463 C_e :3d0   -0.0000   0.0148   0.0154   0.0000   0.0299   0.0026   0.0000
 464 C_e :3d1+  -0.0448   0.0000   0.0000   0.0614   0.0000  -0.0000  -0.0250
 465 C_e :3d2+   0.0000   0.0136   0.0361   0.0000   0.0228   0.0516   0.0000
 466 C_e :3d2-   0.0000  -0.0008  -0.0082   0.0000   0.0414  -0.0123   0.0000
 467 C_e :3d1-   0.0164   0.0000  -0.0000  -0.0175   0.0000  -0.0000   0.0070
 468 C_e :3d0   -0.0000   0.0043  -0.0051  -0.0000  -0.0273   0.0238  -0.0000
 469 C_e :3d1+   0.0227   0.0000   0.0000   0.0444   0.0000   0.0000   0.0154
 470 C_e :3d2+  -0.0000   0.0051   0.0041  -0.0000  -0.0073   0.0267   0.0000
 485 C_e :4f3-  -0.0000  -0.0270  -0.0003   0.0000   0.0022  -0.0080  -0.0000
 486 C_e :4f2-  -0.0078   0.0000  -0.0000   0.0325  -0.0000   0.0000   0.0158
 488 C_e :4f0   -0.0073   0.0000   0.0000   0.0308   0.0000  -0.0000  -0.0004
 490 C_e :4f2+  -0.0138   0.0000   0.0000   0.0494   0.0000  -0.0000  -0.0123
 491 C_e :4f3+   0.0000   0.0216  -0.0110  -0.0000   0.0138  -0.0213  -0.0000
 492 C_e :4f3-  -0.0000  -0.0338  -0.0117  -0.0000   0.0465  -0.0619   0.0000
 493 C_e :4f2-   0.0351  -0.0000   0.0000  -0.0376   0.0000  -0.0000  -0.0847
 494 C_e :4f1-  -0.0000   0.0039   0.0053   0.0000  -0.0333   0.0007  -0.0000
 495 C_e :4f0    0.0197  -0.0000  -0.0000   0.0179  -0.0000  -0.0000  -0.0074
 496 C_e :4f1+  -0.0000  -0.0023  -0.0031  -0.0000   0.0111  -0.0006   0.0000
 497 C_e :4f2+   0.0489  -0.0000   0.0000  -0.0098  -0.0000   0.0000   0.0165
 498 C_e :4f3+  -0.0000   0.0300  -0.0021   0.0000  -0.0064   0.0275  -0.0000
 517 C_e :5g4-   0.0000   0.0144   0.0029  -0.0000   0.0019   0.0006   0.0000
 518 C_e :5g3-   0.0052  -0.0000   0.0000  -0.0144   0.0000   0.0000  -0.0041
 524 C_e :5g3+   0.0073  -0.0000  -0.0000  -0.0133  -0.0000   0.0000   0.0085
 525 C_e :5g4+  -0.0000  -0.0204   0.0033   0.0000  -0.0049   0.0018   0.0000
 527 C_f :1s    -0.0000   0.0266   0.0267  -0.0000   0.0359  -0.0068   0.0000
 529 C_f :1s     0.0000   0.0798   0.0829   0.0000  -0.0081  -0.0232   0.0000
 530 C_f :1s    -0.0000   0.0001  -0.0034  -0.0000  -0.0236   0.0074  -0.0000
 531 C_f :1s    -0.0000  -0.0064  -0.0230  -0.0000  -0.0153   0.0081   0.0000
 532 C_f :1s    -0.0000  -0.0360  -0.0222  -0.0000  -0.0359  -0.0227  -0.0000
 533 C_f :2px    0.0000   0.3666   0.2322   0.0000   0.0503  -0.0602   0.0000
 534 C_f :2py   -0.0000   0.0786   0.0512  -0.0000  -0.1051   0.0024   0.0000
 535 C_f :2pz    0.0328  -0.0000   0.0000   0.3901   0.0000  -0.0000   0.1430
 539 C_f :2px    0.0000   0.0222   0.0193   0.0000   0.0059   0.0038   0.0000
 540 C_f :2py   -0.0000  -0.0082   0.0141  -0.0000  -0.0118   0.0051  -0.0000
 541 C_f :2pz   -0.0024   0.0000   0.0000   0.0333   0.0000  -0.0000   0.0084
 542 C_f :2px   -0.0000  -0.0058  -0.0149   0.0000  -0.0217  -0.0132  -0.0000
 543 C_f :2py    0.0000  -0.0054  -0.0077   0.0000   0.0360   0.0258  -0.0000
 544 C_f :2pz    0.1033  -0.0000   0.0000  -0.0090   0.0000  -0.0000  -0.0581
 545 C_f :2px    0.0000  -0.0110  -0.0332   0.0000   0.0511  -0.0083   0.0000
 546 C_f :2py    0.0000  -0.0058  -0.0253   0.0000   0.0598   0.0224  -0.0000
 547 C_f :2pz   -0.0421   0.0000   0.0000   0.0260   0.0000  -0.0000  -0.0098
 548 C_f :2px   -0.0000  -0.0034   0.0002  -0.0000  -0.0347  -0.0069  -0.0000
 549 C_f :2py    0.0000  -0.0088   0.0301   0.0000   0.0064  -0.0014   0.0000
 556 C_f :3d2-  -0.0000  -0.0106  -0.0109   0.0000  -0.0037   0.0015   0.0000
 560 C_f :3d2+  -0.0000  -0.0141  -0.0105  -0.0000   0.0033   0.0029   0.0000
 561 C_f :3d2-   0.0000   0.0299   0.0459  -0.0000   0.0000   0.0056  -0.0000
 562 C_f :3d1-  -0.0149   0.0000   0.0000   0.0233   0.0000  -0.0000  -0.0175
 563 C_f :3d0    0.0000   0.0187   0.0122  -0.0000  -0.0061  -0.0092   0.0000
 564 C_f :3d1+   0.0050  -0.0000   0.0000   0.0266  -0.0000  -0.0000   0.0217
 565 C_f :3d2+   0.0000   0.0510   0.0544  -0.0000  -0.0152  -0.0174   0.0000
 566 C_f :3d2-   0.0000   0.0054   0.0090  -0.0000   0.0363  -0.0322   0.0000
 567 C_f :3d1-  -0.1465   0.0000   0.0000   0.0802   0.0000   0.0000   0.0260
 568 C_f :3d0    0.0000   0.0027   0.0098  -0.0000  -0.0167  -0.0313   0.0000
 569 C_f :3d1+   0.1065  -0.0000   0.0000  -0.1180   0.0000  -0.0000  -0.0380
 570 C_f :3d2+   0.0000   0.0204   0.0250   0.0000   0.0127  -0.0126   0.0000
 571 C_f :3d2-   0.0000   0.0013   0.0040   0.0000   0.0480  -0.0054   0.0000
 572 C_f :3d1-   0.0356   0.0000   0.0000   0.0077   0.0000  -0.0000  -0.0129
 573 C_f :3d0   -0.0000   0.0078   0.0092  -0.0000   0.0088  -0.0125   0.0000
 574 C_f :3d1+  -0.0250  -0.0000   0.0000  -0.0069   0.0000  -0.0000  -0.0415
 575 C_f :3d2+   0.0000   0.0158  -0.0086   0.0000  -0.0007  -0.0060   0.0000
 590 C_f :4f3-  -0.0000  -0.0087   0.0199  -0.0000   0.0066  -0.0063   0.0000
 591 C_f :4f2-  -0.0129   0.0000  -0.0000   0.0337   0.0000  -0.0000   0.0080
 592 C_f :4f1-  -0.0000   0.0007   0.0051  -0.0000  -0.0162  -0.0064   0.0000
 593 C_f :4f0   -0.0075   0.0000  -0.0000   0.0301  -0.0000   0.0000   0.0134
 595 C_f :4f2+  -0.0017  -0.0000  -0.0000   0.0385  -0.0000   0.0000   0.0305
 596 C_f :4f3+   0.0000   0.0158  -0.0115   0.0000  -0.0061  -0.0025   0.0000
 597 C_f :4f3-  -0.0000  -0.0185   0.0186  -0.0000   0.0334  -0.0149  -0.0000
 598 C_f :4f2-  -0.0141  -0.0000   0.0000  -0.0069   0.0000   0.0000  -0.0328
 599 C_f :4f1-  -0.0000   0.0054   0.0024  -0.0000  -0.0381  -0.0029   0.0000
 600 C_f :4f0    0.0244  -0.0000   0.0000   0.0111  -0.0000   0.0000   0.0171
 602 C_f :4f2+   0.0480  -0.0000   0.0000  -0.0038   0.0000  -0.0000  -0.0630
 603 C_f :4f3+  -0.0000   0.0164  -0.0215  -0.0000  -0.0473  -0.0411   0.0000
 623 C_f :5g3-  -0.0063   0.0000  -0.0000   0.0144  -0.0000   0.0000   0.0065
 629 C_f :5g3+   0.0041  -0.0000  -0.0000   0.0069  -0.0000   0.0000   0.0129
 630 C_f :5g4+  -0.0000   0.0114  -0.0126  -0.0000  -0.0157  -0.0011   0.0000
 632 C_g :1s     0.0000   0.0543   0.0670   0.0000  -0.0275   0.0497  -0.0000
 634 C_g :1s    -0.0000   0.0660   0.0446  -0.0000  -0.0724   0.1096   0.0000
 636 C_g :1s     0.0000  -0.0016  -0.0076  -0.0000  -0.0163  -0.0002   0.0000
 637 C_g :1s     0.0000  -0.0241   0.0135   0.0000  -0.0119   0.0137   0.0000
 638 C_g :2px   -0.0000  -0.3299  -0.1625  -0.0000  -0.0224   0.0741   0.0000
 639 C_g :2py   -0.0000  -0.0326   0.0536  -0.0000   0.1566  -0.0390  -0.0000
 640 C_g :2pz    0.0162   0.0000   0.0000   0.3011   0.0000  -0.0000   0.2711
 644 C_g :2px   -0.0000  -0.0167  -0.0179  -0.0000  -0.0084  -0.0132   0.0000
 645 C_g :2py   -0.0000   0.0149   0.0146  -0.0000   0.0230  -0.0154  -0.0000
 646 C_g :2pz    0.0006  -0.0000   0.0000   0.0265   0.0000  -0.0000   0.0252
 647 C_g :2px   -0.0000   0.0143   0.0047  -0.0000   0.0485   0.0057   0.0000
 648 C_g :2py   -0.0000   0.0178  -0.0080   0.0000  -0.0686   0.0416  -0.0000
 649 C_g :2pz   -0.0829   0.0000   0.0000   0.0675   0.0000  -0.0000  -0.0796
 650 C_g :2px   -0.0000   0.0131   0.0141   0.0000  -0.0568  -0.0248  -0.0000
 651 C_g :2py   -0.0000  -0.0034  -0.0097  -0.0000   0.0147  -0.0162  -0.0000
 652 C_g :2pz    0.0370   0.0000  -0.0000  -0.0684  -0.0000  -0.0000   0.0758
 653 C_g :2px    0.0000   0.0102   0.0009   0.0000  -0.0266  -0.0195  -0.0000
 654 C_g :2py   -0.0000  -0.0167  -0.0296   0.0000  -0.0026  -0.0260  -0.0000
 655 C_g :2pz    0.0036   0.0000   0.0000   0.0093   0.0000  -0.0000  -0.0276
 665 C_g :3d2+  -0.0000  -0.0124  -0.0042  -0.0000   0.0037  -0.0013  -0.0000
 666 C_g :3d2-   0.0000   0.0282   0.0175   0.0000  -0.0012   0.0411   0.0000
 667 C_g :3d1-  -0.0201   0.0000  -0.0000   0.0124  -0.0000   0.0000  -0.0139
 668 C_g :3d0   -0.0000   0.0165   0.0067  -0.0000  -0.0126   0.0117   0.0000
 669 C_g :3d1+   0.0013  -0.0000   0.0000  -0.0307   0.0000   0.0000  -0.0254
 670 C_g :3d2+   0.0000   0.0561   0.0300   0.0000   0.0110  -0.0189   0.0000
 671 C_g :3d2-   0.0000   0.0143  -0.0129   0.0000   0.0880   0.0231   0.0000
 672 C_g :3d1-  -0.0952   0.0000  -0.0000   0.0718  -0.0000   0.0000   0.1205
 673 C_g :3d0   -0.0000   0.0260   0.0031  -0.0000  -0.0326   0.0279   0.0000
 674 C_g :3d1+   0.0957  -0.0000  -0.0000  -0.0346  -0.0000   0.0000   0.0250
 675 C_g :3d2+   0.0000   0.0274   0.0175   0.0000  -0.0230   0.0318   0.0000
 676 C_g :3d2-  -0.0000   0.0021  -0.0183  -0.0000   0.0073   0.0300  -0.0000
 677 C_g :3d1-   0.0195   0.0000  -0.0000  -0.0012  -0.0000   0.0000  -0.0275
 678 C_g :3d0    0.0000  -0.0012  -0.0083   0.0000   0.0272  -0.0061   0.0000
 679 C_g :3d1+  -0.0363  -0.0000   0.0000  -0.0125   0.0000  -0.0000   0.0320
 680 C_g :3d2+   0.0000   0.0071  -0.0084   0.0000  -0.0014   0.0812  -0.0000
 695 C_g :4f3-  -0.0000   0.0093   0.0122  -0.0000  -0.0338   0.0313   0.0000
 696 C_g :4f2-   0.0165  -0.0000   0.0000   0.0055  -0.0000   0.0000   0.0173
 697 C_g :4f1-   0.0000   0.0022   0.0103   0.0000  -0.0056  -0.0006   0.0000
 698 C_g :4f0    0.0035  -0.0000  -0.0000   0.0132  -0.0000   0.0000   0.0138
 700 C_g :4f2+   0.0011   0.0000  -0.0000   0.0264  -0.0000   0.0000   0.0329
 701 C_g :4f3+  -0.0000  -0.0034  -0.0149  -0.0000   0.0022   0.0453  -0.0000
 702 C_g :4f3-  -0.0000   0.0007   0.0027  -0.0000   0.0814   0.0003   0.0000
 703 C_g :4f2-   0.0169   0.0000   0.0000   0.0208   0.0000  -0.0000  -0.0294
 704 C_g :4f1-  -0.0000   0.0058   0.0030   0.0000  -0.0174  -0.0029  -0.0000
 705 C_g :4f0   -0.0176   0.0000   0.0000   0.0283   0.0000  -0.0000  -0.0217
 706 C_g :4f1+   0.0000  -0.0061  -0.0039   0.0000   0.0256   0.0006  -0.0000
 707 C_g :4f2+  -0.0232   0.0000   0.0000   0.0219   0.0000  -0.0000  -0.0139
 708 C_g :4f3+   0.0000  -0.0034  -0.0181   0.0000   0.0797   0.0671   0.0000
 733 C_g :5g2+  -0.0000  -0.0008  -0.0042  -0.0000  -0.0131  -0.0093   0.0000
 735 C_g :5g4+  -0.0000   0.0031   0.0114   0.0000  -0.0134  -0.0101  -0.0000
 737 C_h :1s     0.0000   0.0107  -0.0140   0.0000   0.1058   0.0127   0.0000
 738 C_h :1s     0.0000   0.0001   0.0008   0.0000  -0.0150   0.0003   0.0000
 739 C_h :1s    -0.0000   0.0169  -0.0035  -0.0000   0.1133  -0.0696  -0.0000
 740 C_h :1s     0.0000   0.0104   0.0066   0.0000   0.0292   0.0185   0.0000
 741 C_h :1s     0.0000   0.0035   0.0085   0.0000  -0.0329  -0.0077   0.0000
 742 C_h :1s     0.0000  -0.0199   0.0397   0.0000  -0.0345  -0.0247   0.0000
 743 C_h :2px   -0.0000   0.1046   0.0143  -0.0000   0.2136   0.1521   0.0000
 744 C_h :2py   -0.0000   0.1254   0.0260   0.0000  -0.2378   0.0044  -0.0000
 745 C_h :2pz    0.0091   0.0000  -0.0000   0.2226  -0.0000  -0.0000   0.2605
 749 C_h :2px   -0.0000   0.0148   0.0025  -0.0000   0.0493   0.0274   0.0000
 750 C_h :2py    0.0000   0.0181   0.0125  -0.0000  -0.0036  -0.0541   0.0000
 751 C_h :2pz    0.0028   0.0000  -0.0000   0.0119  -0.0000  -0.0000   0.0095
 752 C_h :2px    0.0000  -0.0068  -0.0147  -0.0000   0.0469  -0.0505   0.0000
 753 C_h :2py   -0.0000  -0.0573  -0.0273  -0.0000   0.1254  -0.1082  -0.0000
 754 C_h :2pz   -0.0762   0.0000  -0.0000   0.0676  -0.0000  -0.0000   0.0757
 755 C_h :2px    0.0000  -0.0172  -0.0038   0.0000   0.0130  -0.0230   0.0000
 756 C_h :2py   -0.0000  -0.0197   0.0014  -0.0000   0.0027   0.0097  -0.0000
 757 C_h :2pz    0.0339   0.0000  -0.0000  -0.0129  -0.0000  -0.0000  -0.0832
 758 C_h :2px    0.0000  -0.0060  -0.0088   0.0000   0.0243   0.0063  -0.0000
 759 C_h :2py    0.0000   0.0209   0.0134  -0.0000  -0.0173   0.0251   0.0000
 766 C_h :3d2-  -0.0000  -0.0068  -0.0030  -0.0000  -0.0151  -0.0030  -0.0000
 771 C_h :3d2-   0.0000   0.0307   0.0144   0.0000  -0.0227  -0.0108   0.0000
 772 C_h :3d1-  -0.0126   0.0000  -0.0000   0.0163  -0.0000   0.0000   0.0089
 773 C_h :3d0   -0.0000   0.0010  -0.0019  -0.0000  -0.0072  -0.0196  -0.0000
 775 C_h :3d2+  -0.0000   0.0088   0.0064   0.0000   0.0127  -0.0060   0.0000
 776 C_h :3d2-  -0.0000   0.0036   0.0168  -0.0000  -0.0427  -0.0268  -0.0000
 777 C_h :3d1-   0.0066  -0.0000  -0.0000  -0.0261  -0.0000   0.0000   0.0946
 778 C_h :3d0   -0.0000   0.0070  -0.0005  -0.0000  -0.0144  -0.0084  -0.0000
 779 C_h :3d1+  -0.0556   0.0000   0.0000   0.0033   0.0000  -0.0000   0.0152
 780 C_h :3d2+   0.0000   0.0204   0.0035  -0.0000   0.0095   0.0214   0.0000
 781 C_h :3d2-  -0.0000  -0.0011   0.0092  -0.0000   0.0479  -0.0192   0.0000
 782 C_h :3d1-   0.0068   0.0000   0.0000   0.0051   0.0000  -0.0000   0.0346
 783 C_h :3d0   -0.0000   0.0051  -0.0003  -0.0000  -0.0145   0.0162  -0.0000
 784 C_h :3d1+   0.0157   0.0000  -0.0000   0.0059  -0.0000   0.0000  -0.0071
 785 C_h :3d2+   0.0000  -0.0015  -0.0106  -0.0000   0.0149  -0.0542   0.0000
 799 C_h :4f3+   0.0000  -0.0008  -0.0007   0.0000  -0.0032  -0.0112   0.0000
 800 C_h :4f3-  -0.0000   0.0247   0.0210  -0.0000  -0.0525   0.0464   0.0000
 801 C_h :4f2-   0.0044  -0.0000  -0.0000   0.0064  -0.0000   0.0000   0.0173
 802 C_h :4f1-   0.0000   0.0062   0.0048   0.0000  -0.0148  -0.0046   0.0000
 803 C_h :4f0    0.0037  -0.0000  -0.0000   0.0052  -0.0000   0.0000   0.0101
 806 C_h :4f3+  -0.0000  -0.0100  -0.0091   0.0000  -0.0054  -0.0029  -0.0000
 807 C_h :4f3-  -0.0000   0.0124   0.0233   0.0000  -0.0941  -0.0193  -0.0000
 808 C_h :4f2-  -0.0155   0.0000  -0.0000   0.0072  -0.0000   0.0000   0.0214
 809 C_h :4f1-  -0.0000  -0.0019  -0.0004   0.0000  -0.0010  -0.0103  -0.0000
 810 C_h :4f0   -0.0126   0.0000  -0.0000   0.0066  -0.0000   0.0000   0.0129
 812 C_h :4f2+  -0.0016   0.0000   0.0000   0.0325   0.0000  -0.0000   0.0196
 813 C_h :4f3+   0.0000   0.0106  -0.0041  -0.0000  -0.0223   0.0461   0.0000
 832 C_h :5g4-  -0.0000   0.0080   0.0057  -0.0000  -0.0292   0.0213  -0.0000
 840 C_h :5g4+   0.0000  -0.0115  -0.0087   0.0000  -0.0179  -0.0202  -0.0000
 842 N_a :1s    -0.0000  -0.0294   0.0217   0.0000   0.0032  -0.0003   0.0000
 845 N_a :1s    -0.0000  -0.0344  -0.0020  -0.0000   0.0075  -0.0091   0.0000
 846 N_a :1s     0.0000   0.0007   0.0091   0.0000   0.0357   0.0364   0.0000
 847 N_a :1s     0.0000   0.0044   0.0147   0.0000   0.0056   0.0306   0.0000
 848 N_a :2px   -0.0000  -0.0600   0.0209   0.0000   0.0018  -0.0001  -0.0000
 849 N_a :2py   -0.0000   0.0227  -0.0343  -0.0000  -0.0071   0.0008  -0.0000
 850 N_a :2pz    0.6431  -0.0000  -0.0000  -0.2042  -0.0000  -0.0000   0.2327
 856 N_a :2pz    0.0125   0.0000   0.0000  -0.0038   0.0000   0.0000   0.0042
 857 N_a :2px   -0.0000  -0.0117   0.0031   0.0000  -0.0054   0.0103   0.0000
 858 N_a :2py   -0.0000   0.0084  -0.0101  -0.0000  -0.0069  -0.0099  -0.0000
 859 N_a :2pz    0.0954  -0.0000  -0.0000  -0.0444  -0.0000  -0.0000   0.0344
 861 N_a :2py    0.0000  -0.0029  -0.0017  -0.0000  -0.0038   0.0153   0.0000
 862 N_a :2pz    0.0414  -0.0000  -0.0000  -0.0111  -0.0000  -0.0000   0.0194
 865 N_a :2pz   -0.0125   0.0000   0.0000   0.0003   0.0000   0.0000  -0.0013
 877 N_a :3d1-  -0.0142   0.0000   0.0000   0.0034   0.0000   0.0000  -0.0019
 879 N_a :3d1+   0.0112  -0.0000  -0.0000  -0.0029  -0.0000  -0.0000   0.0031
 881 N_a :3d2-  -0.0000   0.0008  -0.0024  -0.0000   0.0018  -0.0107  -0.0000
 882 N_a :3d1-  -0.0393   0.0000   0.0000   0.0108   0.0000   0.0000  -0.0099
 884 N_a :3d1+   0.0296  -0.0000  -0.0000  -0.0102  -0.0000  -0.0000   0.0120
 887 N_a :3d1-  -0.0187   0.0000  -0.0000  -0.0077   0.0000   0.0000  -0.0011
 912 N_a :4f3-  -0.0000  -0.0057  -0.0012   0.0000  -0.0002  -0.0147  -0.0000
 915 N_a :4f0    0.0200  -0.0000  -0.0000  -0.0203  -0.0000  -0.0000  -0.0041
 947 N_b :1s    -0.0000   0.0203   0.0119  -0.0000   0.0256   0.0059  -0.0000
 949 N_b :1s    -0.0000   0.0060   0.0023  -0.0000  -0.0018  -0.0159   0.0000
 950 N_b :1s     0.0000   0.0488   0.0104  -0.0000  -0.0740  -0.0209   0.0000
 951 N_b :1s     0.0000   0.0008   0.0053  -0.0000   0.0298   0.0231   0.0000
 952 N_b :1s     0.0000   0.0164   0.0086   0.0000   0.0722   0.0378   0.0000
 953 N_b :2px    0.0000  -0.0533  -0.0100   0.0000  -0.2197   0.0017  -0.0000
 954 N_b :2py   -0.0000   0.0318   0.0194  -0.0000   0.1734   0.1187   0.0000
 955 N_b :2pz   -0.0029  -0.0000  -0.0000  -0.0401  -0.0000   0.0000  -0.0307
 959 N_b :2px   -0.0000   0.0051   0.0016   0.0000  -0.0010   0.0149   0.0000
 960 N_b :2py   -0.0000   0.0057   0.0023   0.0000  -0.0151   0.0039  -0.0000
 962 N_b :2px   -0.0000   0.0034   0.0289  -0.0000  -0.1847  -0.0589  -0.0000
 963 N_b :2py    0.0000   0.0149  -0.0054   0.0000   0.0964   0.0914   0.0000
 964 N_b :2pz    0.0050   0.0000  -0.0000   0.0276  -0.0000   0.0000   0.0668
 965 N_b :2px   -0.0000   0.0033   0.0139  -0.0000  -0.1621   0.1923   0.0000
 966 N_b :2py    0.0000   0.0143  -0.0001   0.0000   0.0476   0.1635  -0.0000
 967 N_b :2pz   -0.0080   0.0000  -0.0000   0.0502  -0.0000   0.0000   0.0598
 968 N_b :2px   -0.0000  -0.0029  -0.0002  -0.0000  -0.0160   0.0041   0.0000
 969 N_b :2py    0.0000  -0.0123   0.0007   0.0000   0.0357  -0.0017  -0.0000
 976 N_b :3d2-   0.0000   0.0002   0.0016   0.0000  -0.0336  -0.0086   0.0000
 977 N_b :3d1-   0.0002  -0.0000   0.0000   0.0038   0.0000  -0.0000   0.0177
 980 N_b :3d2+  -0.0000  -0.0006   0.0017  -0.0000  -0.0051   0.0250  -0.0000
 981 N_b :3d2-   0.0000  -0.0051  -0.0033   0.0000   0.0196  -0.0003   0.0000
 982 N_b :3d1-  -0.0012  -0.0000  -0.0000   0.0051  -0.0000  -0.0000   0.0149
 985 N_b :3d2+  -0.0000  -0.0035  -0.0025   0.0000   0.0197  -0.0432  -0.0000
 986 N_b :3d2-   0.0000  -0.0187  -0.0227   0.0000   0.1511  -0.0136   0.0000
 987 N_b :3d1-   0.0044  -0.0000   0.0000  -0.0022   0.0000  -0.0000  -0.0602
[...]
      ----------------------------------------------------------------
         1    2.45778D-02  0.00D+00  2.46D-02  3.39D+01    0.00000D+00
         2    2.56518D-02  0.00D+00  2.57D-02  3.53D+01    2.33000D-02
         3    2.94207D-02  0.00D+00  2.94D-02  3.99D+01    4.66000D-02

 *** THE REQUESTED    3 SOLUTION VECTORS CONVERGED

 Convergence of RSP solution vectors, threshold = 1.00D-03
 ---------------------------------------------------------------
 (dimension of paired reduced space:   42)
 RSP solution vector no.    1; norm of residual   7.25D-04
 RSP solution vector no.    2; norm of residual   7.27D-04
 RSP solution vector no.    3; norm of residual   7.38D-04

 *** RSPCTL MICROITERATIONS CONVERGED

@ QRLRVE: SINGLET SOLUTION FOR SYMMETRY    1  ( A  )    LABEL   YDIPLEN     FREQUENCY   0.000000D+00

@ QRLRVE:  << XDIPLEN  ; YDIPLEN  >> (   0.00000):    -58.2043523780    

@ QRLRVE:  << YDIPLEN  ; YDIPLEN  >> (   0.00000):     408.244699757    

@ QRLRVE:  << ZDIPLEN  ; YDIPLEN  >> (   0.00000):    2.260925071326E-14

@ QRLRVE: SINGLET SOLUTION FOR SYMMETRY    1  ( A  )    LABEL   YDIPLEN     FREQUENCY   0.233000D-01

@ QRLRVE:  << XDIPLEN  ; YDIPLEN  >> (   0.02330):    -59.9430399780    

@ QRLRVE:  << YDIPLEN  ; YDIPLEN  >> (   0.02330):     417.047323218    

@ QRLRVE:  << ZDIPLEN  ; YDIPLEN  >> (   0.02330):    2.406299827110E-14

@ QRLRVE: SINGLET SOLUTION FOR SYMMETRY    1  ( A  )    LABEL   YDIPLEN     FREQUENCY   0.466000D-01

@ QRLRVE:  << XDIPLEN  ; YDIPLEN  >> (   0.04660):    -65.8289074545    

@ QRLRVE:  << YDIPLEN  ; YDIPLEN  >> (   0.04660):     446.670162735    

@ QRLRVE:  << ZDIPLEN  ; YDIPLEN  >> (   0.04660):    2.910098457982E-14


 QRLRVE -- linear response calculation for symmetry  1  ( A  )
 QRLRVE -- operator label : ZDIPLEN 
 QRLRVE -- operator spin  :   0
 QRLRVE -- frequencies :  0.000000  0.023300  0.046600



 ---  SOLVING SETS OF LINEAR EQUATIONS FOR LINEAR RESPONSE PROPERTIES ---

 Operator symmetry = 1  ( A  ); triplet =   F


 ** RSPCTL MICROITERATION NUMBER    1

       No.  Residual tot.,    conf., and orb.    Bnorm      Frequency 
      ----------------------------------------------------------------
         1    2.89317D+00  0.00D+00  2.89D+00  6.86D+00    0.00000D+00
         2    2.89659D+00  0.00D+00  2.90D+00  6.89D+00    2.33000D-02
         3    2.90696D+00  0.00D+00  2.91D+00  6.99D+00    4.66000D-02

 ** RSPCTL MICROITERATION NUMBER    2

       No.  Residual tot.,    conf., and orb.    Bnorm      Frequency 
      ----------------------------------------------------------------
         1    7.45019D-01  0.00D+00  7.45D-01  7.21D+00    0.00000D+00
         2    7.47529D-01  0.00D+00  7.48D-01  7.24D+00    2.33000D-02
         3    7.55198D-01  0.00D+00  7.55D-01  7.34D+00    4.66000D-02

 ** RSPCTL MICROITERATION NUMBER    3

       No.  Residual tot.,    conf., and orb.    Bnorm      Frequency 
      ----------------------------------------------------------------
         1    1.57814D-01  0.00D+00  1.58D-01  7.24D+00    0.00000D+00
         2    1.59440D-01  0.00D+00  1.59D-01  7.27D+00    2.33000D-02
         3    1.64464D-01  0.00D+00  1.64D-01  7.37D+00    4.66000D-02

 ** RSPCTL MICROITERATION NUMBER    4

       No.  Residual tot.,    conf., and orb.    Bnorm      Frequency 
      ----------------------------------------------------------------
         1    4.17444D-02  0.00D+00  4.17D-02  7.24D+00    0.00000D+00
         2    4.28126D-02  0.00D+00  4.28D-02  7.27D+00    2.33000D-02
         3    4.62386D-02  0.00D+00  4.62D-02  7.38D+00    4.66000D-02

 ** RSPCTL MICROITERATION NUMBER    5

       No.  Residual tot.,    conf., and orb.    Bnorm      Frequency 
      ----------------------------------------------------------------
         1    1.60584D-02  0.00D+00  1.61D-02  7.24D+00    0.00000D+00
         2    1.68509D-02  0.00D+00  1.69D-02  7.27D+00    2.33000D-02
         3    1.94156D-02  0.00D+00  1.94D-02  7.38D+00    4.66000D-02

 ** RSPCTL MICROITERATION NUMBER    6

       No.  Residual tot.,    conf., and orb.    Bnorm      Frequency 
      ----------------------------------------------------------------
         1    6.38707D-03  0.00D+00  6.39D-03  7.24D+00    0.00000D+00
         2    6.81618D-03  0.00D+00  6.82D-03  7.27D+00    2.33000D-02
         3    8.24136D-03  0.00D+00  8.24D-03  7.38D+00    4.66000D-02

 ** RSPCTL MICROITERATION NUMBER    7

       No.  Residual tot.,    conf., and orb.    Bnorm      Frequency 
      ----------------------------------------------------------------
         1    1.73339D-03  0.00D+00  1.73D-03  7.24D+00    0.00000D+00
         2    1.86199D-03  0.00D+00  1.86D-03  7.27D+00    2.33000D-02
         3    2.36640D-03  0.00D+00  2.37D-03  7.38D+00    4.66000D-02

 *** THE REQUESTED    3 SOLUTION VECTORS CONVERGED

 Convergence of RSP solution vectors, threshold = 1.00D-03
 ---------------------------------------------------------------
 (dimension of paired reduced space:   38)
 RSP solution vector no.    1; norm of residual   2.39D-04
 RSP solution vector no.    2; norm of residual   2.56D-04
 RSP solution vector no.    3; norm of residual   3.21D-04

 *** RSPCTL MICROITERATIONS CONVERGED

@ QRLRVE: SINGLET SOLUTION FOR SYMMETRY    1  ( A  )    LABEL   ZDIPLEN     FREQUENCY   0.000000D+00

@ QRLRVE:  << XDIPLEN  ; ZDIPLEN  >> (   0.00000):    4.482464172308E-15

@ QRLRVE:  << YDIPLEN  ; ZDIPLEN  >> (   0.00000):    2.625353377141E-14

@ QRLRVE:  << ZDIPLEN  ; ZDIPLEN  >> (   0.00000):     75.7322144208    

@ QRLRVE: SINGLET SOLUTION FOR SYMMETRY    1  ( A  )    LABEL   ZDIPLEN     FREQUENCY   0.233000D-01

@ QRLRVE:  << XDIPLEN  ; ZDIPLEN  >> (   0.02330):    4.626641053387E-15

@ QRLRVE:  << YDIPLEN  ; ZDIPLEN  >> (   0.02330):    2.779804210919E-14

@ QRLRVE:  << ZDIPLEN  ; ZDIPLEN  >> (   0.02330):     75.8740705459    

@ QRLRVE: SINGLET SOLUTION FOR SYMMETRY    1  ( A  )    LABEL   ZDIPLEN     FREQUENCY   0.466000D-01

@ QRLRVE:  << XDIPLEN  ; ZDIPLEN  >> (   0.04660):    5.053439963549E-15

@ QRLRVE:  << YDIPLEN  ; ZDIPLEN  >> (   0.04660):    3.298490150304E-14

@ QRLRVE:  << ZDIPLEN  ; ZDIPLEN  >> (   0.04660):     76.3057823041    
 
 ======================================================================
 ---  L I N E A R   R E S P O N S E   F U N C T I O N S --- 
 ======================================================================

 The -<<A;B>>(omega_b) functions from vectors generated
 in a *QUADRA calculation of <<A;B,C>>(omega_b,omega_c)

 Note: the accuracy of off-diagonal elements will be linear
 in the convergence threshold THCLR =  1.00D-03


 Perturbation symmetry.     KSYMOP:           1
 Perturbation spin symmetry.TRPLET:           F
 Orbital variables.         KZWOPT:       76868
 Configuration variables.   KZCONF:           0
 Total number of variables. KZVAR :       76868

@ Singlet linear response function in a.u.

@ A operator, symmetry, frequency:   XDIPLEN    1 -0.000000
@ B operator, symmetry, frequency:   XDIPLEN    1  0.000000

@ Value of linear response -<<A;B>>(omega):     119.503044090411

@ Singlet linear response function in a.u.

@ A operator, symmetry, frequency:   YDIPLEN    1 -0.000000
@ B operator, symmetry, frequency:   XDIPLEN    1  0.000000

@ Value of linear response -<<A;B>>(omega):     -58.200753938179

@ Singlet linear response function in a.u.

@ A operator, symmetry, frequency:   ZDIPLEN    1 -0.000000
@ B operator, symmetry, frequency:   XDIPLEN    1  0.000000

@ Value of linear response -<<A;B>>(omega):      -0.000000000000

@ Singlet linear response function in a.u.

@ A operator, symmetry, frequency:   XDIPLEN    1 -0.023300
@ B operator, symmetry, frequency:   XDIPLEN    1  0.023300

@ Value of linear response -<<A;B>>(omega):     120.108973209876

@ Singlet linear response function in a.u.

@ A operator, symmetry, frequency:   YDIPLEN    1 -0.023300
@ B operator, symmetry, frequency:   XDIPLEN    1  0.023300

@ Value of linear response -<<A;B>>(omega):     -59.939324143404

@ Singlet linear response function in a.u.

@ A operator, symmetry, frequency:   ZDIPLEN    1 -0.023300
@ B operator, symmetry, frequency:   XDIPLEN    1  0.023300

@ Value of linear response -<<A;B>>(omega):      -0.000000000000

@ Singlet linear response function in a.u.

@ A operator, symmetry, frequency:   XDIPLEN    1 -0.000000
@ B operator, symmetry, frequency:   YDIPLEN    1  0.000000

@ Value of linear response -<<A;B>>(omega):     -58.204352378000

@ Singlet linear response function in a.u.

@ A operator, symmetry, frequency:   YDIPLEN    1 -0.000000
@ B operator, symmetry, frequency:   YDIPLEN    1  0.000000

@ Value of linear response -<<A;B>>(omega):     408.244699756909

@ Singlet linear response function in a.u.

@ A operator, symmetry, frequency:   ZDIPLEN    1 -0.000000
@ B operator, symmetry, frequency:   YDIPLEN    1  0.000000

@ Value of linear response -<<A;B>>(omega):       0.000000000000

@ Singlet linear response function in a.u.

@ A operator, symmetry, frequency:   XDIPLEN    1 -0.023300
@ B operator, symmetry, frequency:   YDIPLEN    1  0.023300

@ Value of linear response -<<A;B>>(omega):     -59.943039978010

@ Singlet linear response function in a.u.

@ A operator, symmetry, frequency:   YDIPLEN    1 -0.023300
@ B operator, symmetry, frequency:   YDIPLEN    1  0.023300

@ Value of linear response -<<A;B>>(omega):     417.047323217557

@ Singlet linear response function in a.u.

@ A operator, symmetry, frequency:   ZDIPLEN    1 -0.023300
@ B operator, symmetry, frequency:   YDIPLEN    1  0.023300

@ Value of linear response -<<A;B>>(omega):       0.000000000000

@ Singlet linear response function in a.u.

@ A operator, symmetry, frequency:   XDIPLEN    1 -0.000000
@ B operator, symmetry, frequency:   ZDIPLEN    1  0.000000

@ Value of linear response -<<A;B>>(omega):       0.000000000000

@ Singlet linear response function in a.u.

@ A operator, symmetry, frequency:   YDIPLEN    1 -0.000000
@ B operator, symmetry, frequency:   ZDIPLEN    1  0.000000

@ Value of linear response -<<A;B>>(omega):       0.000000000000

@ Singlet linear response function in a.u.

@ A operator, symmetry, frequency:   ZDIPLEN    1 -0.000000
@ B operator, symmetry, frequency:   ZDIPLEN    1  0.000000

@ Value of linear response -<<A;B>>(omega):      75.732214420809

@ Singlet linear response function in a.u.

@ A operator, symmetry, frequency:   XDIPLEN    1 -0.023300
@ B operator, symmetry, frequency:   ZDIPLEN    1  0.023300

@ Value of linear response -<<A;B>>(omega):       0.000000000000

@ Singlet linear response function in a.u.

@ A operator, symmetry, frequency:   YDIPLEN    1 -0.023300
@ B operator, symmetry, frequency:   ZDIPLEN    1  0.023300

@ Value of linear response -<<A;B>>(omega):       0.000000000000

@ Singlet linear response function in a.u.

@ A operator, symmetry, frequency:   ZDIPLEN    1 -0.023300
@ B operator, symmetry, frequency:   ZDIPLEN    1  0.023300

@ Value of linear response -<<A;B>>(omega):      75.874070545946


  Results from quadratic response calculation
 --------------------------------------------

@ B-freq = 0.000000  C-freq = 0.000000     beta(X;X,X) =   -329.60397949
@ B-freq = 0.000000  C-freq = 0.000000     beta(Y;X,X) =   1160.43817552
@ B-freq = 0.000000  C-freq = 0.000000     beta(Z;X,X) =      0.00000000
@ B-freq = 0.023300  C-freq = 0.000000     beta(X;X,X) =   -345.72948644
@ B-freq = 0.023300  C-freq = 0.000000     beta(Y;X,X) =   1218.33008507
@ B-freq = 0.023300  C-freq = 0.000000     beta(Z;X,X) =      0.00000000
@ B-freq = 0.000000  C-freq = 0.000000     beta(X;Y,X) = beta(Y,X,X)
@ B-freq = 0.000000  C-freq = 0.000000     beta(X;Y,X) =   1160.43819469
@ B-freq = 0.000000  C-freq = 0.000000     beta(Y;Y,X) =  -3080.46865673
@ B-freq = 0.000000  C-freq = 0.000000     beta(Z;Y,X) =     -0.00000000
@ B-freq = 0.023300  C-freq = 0.000000     beta(X;Y,X) =   1218.33010520
@ B-freq = 0.023300  C-freq = 0.000000     beta(Y;Y,X) =  -3270.38618234
@ B-freq = 0.023300  C-freq = 0.000000     beta(Z;Y,X) =     -0.00000000
@ B-freq = 0.000000  C-freq = 0.000000     beta(X;Z,X) = beta(Z,X,X)
@ B-freq = 0.000000  C-freq = 0.000000     beta(Y;Z,X) = beta(Z,Y,X)
@ B-freq = 0.000000  C-freq = 0.000000     beta(X;Z,X) =      0.00000000
@ B-freq = 0.000000  C-freq = 0.000000     beta(Y;Z,X) =     -0.00000000
@ B-freq = 0.000000  C-freq = 0.000000     beta(Z;Z,X) =     15.96783411
@ B-freq = 0.023300  C-freq = 0.000000     beta(X;Z,X) =      0.00000000
@ B-freq = 0.023300  C-freq = 0.000000     beta(Y;Z,X) =     -0.00000000
@ B-freq = 0.023300  C-freq = 0.000000     beta(Z;Z,X) =     16.19574208
@ B-freq = 0.000000  C-freq = 0.023300     beta(X;X,X) = beta(X,X,X)
@ B-freq = 0.000000  C-freq = 0.023300     beta(Y;X,X) = beta(Y,X,X)
@ B-freq = 0.000000  C-freq = 0.023300     beta(Z;X,X) = beta(Z,X,X)
@ B-freq = 0.023300  C-freq = 0.023300     beta(X;X,X) =   -381.98006559
@ B-freq = 0.023300  C-freq = 0.023300     beta(Y;X,X) =   1364.10085214
@ B-freq = 0.023300  C-freq = 0.023300     beta(Z;X,X) =      0.00000000
@ B-freq = 0.000000  C-freq = 0.023300     beta(X;Y,X) =   1205.61753864
@ B-freq = 0.000000  C-freq = 0.023300     beta(Y;Y,X) =  -3222.43159940
@ B-freq = 0.000000  C-freq = 0.023300     beta(Z;Y,X) =     -0.00000000
@ B-freq = 0.023300  C-freq = 0.023300     beta(X;Y,X) =   1320.45299907
@ B-freq = 0.023300  C-freq = 0.023300     beta(Y;Y,X) =  -3651.42671011
@ B-freq = 0.023300  C-freq = 0.023300     beta(Z;Y,X) =     -0.00000000
@ B-freq = 0.000000  C-freq = 0.023300     beta(X;Z,X) =      0.00000000
@ B-freq = 0.000000  C-freq = 0.023300     beta(Y;Z,X) =     -0.00000000
@ B-freq = 0.000000  C-freq = 0.023300     beta(Z;Z,X) =     16.25833940
@ B-freq = 0.023300  C-freq = 0.023300     beta(X;Z,X) =      0.00000000
@ B-freq = 0.023300  C-freq = 0.023300     beta(Y;Z,X) =     -0.00000000
@ B-freq = 0.023300  C-freq = 0.023300     beta(Z;Z,X) =     16.73699281
@ B-freq = 0.000000  C-freq = 0.000000     beta(X;X,Y) = beta(Y,X,X)
@ B-freq = 0.000000  C-freq = 0.000000     beta(Y;X,Y) = beta(Y,Y,X)
@ B-freq = 0.000000  C-freq = 0.000000     beta(Z;X,Y) = beta(Z,Y,X)
@ B-freq = 0.023300  C-freq = 0.000000     beta(X;X,Y) = beta(X,Y,X)
@ B-freq = 0.023300  C-freq = 0.000000     beta(Y;X,Y) = beta(Y,Y,X)
@ B-freq = 0.023300  C-freq = 0.000000     beta(Z;X,Y) = beta(Z,Y,X)
@ B-freq = 0.000000  C-freq = 0.000000     beta(X;Y,Y) = beta(Y,Y,X)
@ B-freq = 0.000000  C-freq = 0.000000     beta(X;Y,Y) =  -3080.46899146
@ B-freq = 0.000000  C-freq = 0.000000     beta(Y;Y,Y) =   5656.60414457
@ B-freq = 0.000000  C-freq = 0.000000     beta(Z;Y,Y) =      0.00000000
@ B-freq = 0.023300  C-freq = 0.000000     beta(X;Y,Y) =  -3222.43195309
@ B-freq = 0.023300  C-freq = 0.000000     beta(Y;Y,Y) =   6028.40812511
@ B-freq = 0.023300  C-freq = 0.000000     beta(Z;Y,Y) =      0.00000000
@ B-freq = 0.000000  C-freq = 0.000000     beta(X;Z,Y) = beta(Z,Y,X)
@ B-freq = 0.000000  C-freq = 0.000000     beta(Y;Z,Y) = beta(Z,Y,Y)
@ B-freq = 0.000000  C-freq = 0.000000     beta(X;Z,Y) =     -0.00000000
@ B-freq = 0.000000  C-freq = 0.000000     beta(Y;Z,Y) =      0.00000000
@ B-freq = 0.000000  C-freq = 0.000000     beta(Z;Z,Y) =    -38.17991649
@ B-freq = 0.023300  C-freq = 0.000000     beta(X;Z,Y) =     -0.00000000
@ B-freq = 0.023300  C-freq = 0.000000     beta(Y;Z,Y) =      0.00000000
@ B-freq = 0.023300  C-freq = 0.000000     beta(Z;Z,Y) =    -38.95481721
@ B-freq = 0.000000  C-freq = 0.023300     beta(X;X,Y) = beta(X,Y,X)
@ B-freq = 0.000000  C-freq = 0.023300     beta(Y;X,Y) = beta(Y,Y,X)
@ B-freq = 0.000000  C-freq = 0.023300     beta(Z;X,Y) = beta(Z,Y,X)
@ B-freq = 0.023300  C-freq = 0.023300     beta(X;X,Y) = beta(X,Y,X)
@ B-freq = 0.023300  C-freq = 0.023300     beta(Y;X,Y) = beta(Y,Y,X)
@ B-freq = 0.023300  C-freq = 0.023300     beta(Z;X,Y) = beta(Z,Y,X)
@ B-freq = 0.000000  C-freq = 0.023300     beta(X;Y,Y) = beta(X,Y,Y)
@ B-freq = 0.000000  C-freq = 0.023300     beta(Y;Y,Y) = beta(Y,Y,Y)
@ B-freq = 0.000000  C-freq = 0.023300     beta(Z;Y,Y) = beta(Z,Y,Y)
@ B-freq = 0.023300  C-freq = 0.023300     beta(X;Y,Y) =  -3487.05264014
@ B-freq = 0.023300  C-freq = 0.023300     beta(Y;Y,Y) =   6882.84586605
@ B-freq = 0.023300  C-freq = 0.023300     beta(Z;Y,Y) =      0.00000000
@ B-freq = 0.000000  C-freq = 0.023300     beta(X;Z,Y) =     -0.00000000
@ B-freq = 0.000000  C-freq = 0.023300     beta(Y;Z,Y) =      0.00000000
@ B-freq = 0.000000  C-freq = 0.023300     beta(Z;Z,Y) =    -39.28202326
@ B-freq = 0.023300  C-freq = 0.023300     beta(X;Z,Y) =     -0.00000000
@ B-freq = 0.023300  C-freq = 0.023300     beta(Y;Z,Y) =      0.00000000
@ B-freq = 0.023300  C-freq = 0.023300     beta(Z;Z,Y) =    -40.93073728
@ B-freq = 0.000000  C-freq = 0.000000     beta(X;X,Z) = beta(Z,X,X)
@ B-freq = 0.000000  C-freq = 0.000000     beta(Y;X,Z) = beta(Z,Y,X)
@ B-freq = 0.000000  C-freq = 0.000000     beta(Z;X,Z) = beta(Z,Z,X)
@ B-freq = 0.023300  C-freq = 0.000000     beta(X;X,Z) = beta(X,Z,X)
@ B-freq = 0.023300  C-freq = 0.000000     beta(Y;X,Z) = beta(Y,Z,X)
@ B-freq = 0.023300  C-freq = 0.000000     beta(Z;X,Z) = beta(Z,Z,X)
@ B-freq = 0.000000  C-freq = 0.000000     beta(X;Y,Z) = beta(Z,Y,X)
@ B-freq = 0.000000  C-freq = 0.000000     beta(Y;Y,Z) = beta(Z,Y,Y)
@ B-freq = 0.000000  C-freq = 0.000000     beta(Z;Y,Z) = beta(Z,Z,Y)
@ B-freq = 0.023300  C-freq = 0.000000     beta(X;Y,Z) = beta(X,Z,Y)
@ B-freq = 0.023300  C-freq = 0.000000     beta(Y;Y,Z) = beta(Y,Z,Y)
@ B-freq = 0.023300  C-freq = 0.000000     beta(Z;Y,Z) = beta(Z,Z,Y)
@ B-freq = 0.000000  C-freq = 0.000000     beta(X;Z,Z) = beta(Z,Z,X)
@ B-freq = 0.000000  C-freq = 0.000000     beta(Y;Z,Z) = beta(Z,Z,Y)
@ B-freq = 0.000000  C-freq = 0.000000     beta(X;Z,Z) =     15.96782894
@ B-freq = 0.000000  C-freq = 0.000000     beta(Y;Z,Z) =    -38.17989058
@ B-freq = 0.000000  C-freq = 0.000000     beta(Z;Z,Z) =      0.00000000
@ B-freq = 0.023300  C-freq = 0.000000     beta(X;Z,Z) =     16.25833398
@ B-freq = 0.023300  C-freq = 0.000000     beta(Y;Z,Z) =    -39.28199611
@ B-freq = 0.023300  C-freq = 0.000000     beta(Z;Z,Z) =      0.00000000
@ B-freq = 0.000000  C-freq = 0.023300     beta(X;X,Z) = beta(X,Z,X)
@ B-freq = 0.000000  C-freq = 0.023300     beta(Y;X,Z) = beta(Y,Z,X)
@ B-freq = 0.000000  C-freq = 0.023300     beta(Z;X,Z) = beta(Z,Z,X)
@ B-freq = 0.023300  C-freq = 0.023300     beta(X;X,Z) = beta(X,Z,X)
@ B-freq = 0.023300  C-freq = 0.023300     beta(Y;X,Z) = beta(Y,Z,X)
@ B-freq = 0.023300  C-freq = 0.023300     beta(Z;X,Z) = beta(Z,Z,X)
@ B-freq = 0.000000  C-freq = 0.023300     beta(X;Y,Z) = beta(X,Z,Y)
@ B-freq = 0.000000  C-freq = 0.023300     beta(Y;Y,Z) = beta(Y,Z,Y)
@ B-freq = 0.000000  C-freq = 0.023300     beta(Z;Y,Z) = beta(Z,Z,Y)
@ B-freq = 0.023300  C-freq = 0.023300     beta(X;Y,Z) = beta(X,Z,Y)
@ B-freq = 0.023300  C-freq = 0.023300     beta(Y;Y,Z) = beta(Y,Z,Y)
@ B-freq = 0.023300  C-freq = 0.023300     beta(Z;Y,Z) = beta(Z,Z,Y)
@ B-freq = 0.000000  C-freq = 0.023300     beta(X;Z,Z) = beta(X,Z,Z)
@ B-freq = 0.000000  C-freq = 0.023300     beta(Y;Z,Z) = beta(Y,Z,Z)
@ B-freq = 0.000000  C-freq = 0.023300     beta(Z;Z,Z) = beta(Z,Z,Z)
@ B-freq = 0.023300  C-freq = 0.023300     beta(X;Z,Z) =     16.96248511
@ B-freq = 0.023300  C-freq = 0.023300     beta(Y;Z,Z) =    -42.09916794
@ B-freq = 0.023300  C-freq = 0.023300     beta(Z;Z,Z) =      0.00000000

  Total CPU  time used in RESPONSE:  14 hours 49 minutes 29 seconds
  Total wall time used in RESPONSE:  14 hours 52 minutes 56 seconds


                   .-------------------------------------------.
                   | End of Dynamic Property Section (RESPONS) |
                   `-------------------------------------------'

  Total CPU  time used in DALTON:  18 hours 39 minutes 36 seconds
  Total wall time used in DALTON:  18 hours 43 minutes 49 seconds

 
     Date and time (Linux)  : Fri May  9 17:07:07 2025
     Host name              : xm046                                   
