

     ************************************************************************
     *************** Dalton - An Electronic Structure Program ***************
     ************************************************************************

    This is output from DALTON release Dalton2020.0 (2020)
         ( Web site: http://daltonprogram.org )

   ----------------------------------------------------------------------------

    NOTE:
     
    Dalton is an experimental code for the evaluation of molecular
    properties using (MC)SCF, DFT, CI, and CC wave functions.
    The authors accept no responsibility for the performance of
    the code or for the correctness of the results.
     
    The code (in whole or part) is provided under a licence and
    is not to be reproduced for further distribution without
    the written permission of the authors or their representatives.
     
    See the home page "http://daltonprogram.org" for further information.
     
    If results obtained with this code are published,
    the appropriate citations would be both of:
     
       K. Aidas, C. Angeli, K. L. Bak, V. Bakken, R. Bast,
       L. Boman, O. Christiansen, R. Cimiraglia, S. Coriani,
       P. Dahle, E. K. Dalskov, U. Ekstroem,
       T. Enevoldsen, J. J. Eriksen, P. Ettenhuber, B. Fernandez,
       L. Ferrighi, H. Fliegl, L. Frediani, K. Hald, A. Halkier,
       C. Haettig, H. Heiberg, T. Helgaker, A. C. Hennum,
       H. Hettema, E. Hjertenaes, S. Hoest, I.-M. Hoeyvik,
       M. F. Iozzi, B. Jansik, H. J. Aa. Jensen, D. Jonsson,
       P. Joergensen, J. Kauczor, S. Kirpekar,
       T. Kjaergaard, W. Klopper, S. Knecht, R. Kobayashi, H. Koch,
       J. Kongsted, A. Krapp, K. Kristensen, A. Ligabue,
       O. B. Lutnaes, J. I. Melo, K. V. Mikkelsen, R. H. Myhre,
       C. Neiss, C. B. Nielsen, P. Norman, J. Olsen,
       J. M. H. Olsen, A. Osted, M. J. Packer, F. Pawlowski,
       T. B. Pedersen, P. F. Provasi, S. Reine, Z. Rinkevicius,
       T. A. Ruden, K. Ruud, V. Rybkin, P. Salek, C. C. M. Samson,
       A. Sanchez de Meras, T. Saue, S. P. A. Sauer,
       B. Schimmelpfennig, K. Sneskov, A. H. Steindal,
       K. O. Sylvester-Hvid, P. R. Taylor, A. M. Teale,
       E. I. Tellgren, D. P. Tew, A. J. Thorvaldsen, L. Thoegersen,
       O. Vahtras, M. A. Watson, D. J. D. Wilson, M. Ziolkowski
       and H. Agren,
       "The Dalton quantum chemistry program system",
       WIREs Comput. Mol. Sci. 2014, 4:269–284 (doi: 10.1002/wcms.1172)
     
    and
     
       Dalton, a molecular electronic structure program,
       Release Dalton2020.0 (2020), see http://daltonprogram.org
   ----------------------------------------------------------------------------

    Authors in alphabetical order (Major contribution(s) in parenthesis):

  Kestutis Aidas,           Vilnius University,           Lithuania   (QM/MM)
  Celestino Angeli,         University of Ferrara,        Italy       (NEVPT2)
  Keld L. Bak,              UNI-C,                        Denmark     (AOSOPPA, non-adiabatic coupling, magnetic properties)
  Vebjoern Bakken,          University of Oslo,           Norway      (DALTON; geometry optimizer, symmetry detection)
  Radovan Bast,             UiT The Arctic U. of Norway,  Norway      (DALTON installation and execution frameworks)
  Pablo Baudin,             University of Valencia,       Spain       (Cholesky excitation energies)
  Linus Boman,              NTNU,                         Norway      (Cholesky decomposition and subsystems)
  Bruno N. Cabral Tenorio,  Technical Univ. of Denmark,   Denmark     (Lanczos-based CC methods)
  Ove Christiansen,         Aarhus University,            Denmark     (CC module)
  Renzo Cimiraglia,         University of Ferrara,        Italy       (NEVPT2)
  Sonia Coriani,            Technical Univ. of Denmark,   Denmark     (CC and RESPONS modules)
  Janusz Cukras,            University of Warsaw,         Poland      (MChD in RESPONS)
  Paal Dahle,               University of Oslo,           Norway      (Parallelization)
  Erik K. Dalskov,          UNI-C,                        Denmark     (SOPPA)
  Thomas Enevoldsen,        Univ. of Southern Denmark,    Denmark     (SOPPA)
  Janus J. Eriksen,         Aarhus University,            Denmark     (Polarizable embedding, TDA)
  Rasmus Faber,             Technical Univ. of Denmark,   Denmark     (Vib.avg. NMR w. SOPPA, parallel AO-SOPPA, CVS-CC and EOMCC)
  Tobias Fahleson,          KTH Stockholm,                Sweden      (Damped cubic response)
  Berta Fernandez,          U. of Santiago de Compostela, Spain       (Doublet spin, ESR in RESPONS)
  Lara Ferrighi,            Aarhus University,            Denmark     (PCM Cubic response)
  Heike Fliegl,             University of Oslo,           Norway      (CCSD(R12))
  Luca Frediani,            UiT The Arctic U. of Norway,  Norway      (PCM)
  Emmanuel Fromager,        Univ. Strasbourg,             France      (MC-srDFT)
  Bin Gao,                  UiT The Arctic U. of Norway,  Norway      (Gen1Int library)
  Andre S. P. Gomes,        CNRS/Universite de Lille,     France      (Frozen density embedding)
  Christof Haettig,         Ruhr-University Bochum,       Germany     (CC module)
  Kasper Hald,              Aarhus University,            Denmark     (CC module)
  Asger Halkier,            Aarhus University,            Denmark     (CC module)
  Frederik Beyer Hansen,    University of Copenhagen,     Denmark     (Parallel AO-SOPPA)
  Erik D. Hedegaard,        Univ. of Southern Denmark,    Denmark     (Polarizable embedding, QM/MM, and MC-srDFT)
  Hanne Heiberg,            University of Oslo,           Norway      (Geometry analysis, selected one-electron integrals)
  Trygve Helgaker,          University of Oslo,           Norway      (DALTON; ABACUS, ERI, DFT modules, London, and much more)
  Alf Christian Hennum,     University of Oslo,           Norway      (Parity violation)
  Hinne Hettema,            University of Auckland,       New Zealand (Quadratic response in RESPONS; SIRIUS supersymmetry)
  Eirik Hjertenaes,         NTNU,                         Norway      (Cholesky decomposition)
  Pi A. B. Haase,           University of Copenhagen,     Denmark     (Triplet AO-SOPPA)
  Maria Francesca Iozzi,    University of Oslo,           Norway      (RPA)
  Christoph Jacob           TU Braunschweig               Germany     (Frozen density embedding)
  Brano Jansik              Technical Univ. of Ostrava    Czech Rep.  (DFT cubic response)
  Hans Joergen Aa. Jensen,  Univ. of Southern Denmark,    Denmark     (DALTON; SIRIUS, RESPONS, ABACUS, MC-srDFT, and much more)
  Dan Jonsson,              UiT The Arctic U. of Norway,  Norway      (Cubic response in RESPONS module)
  Poul Joergensen,          Aarhus University,            Denmark     (RESPONS, ABACUS, and CC modules)
  Maciej Kaminski,          University of Warsaw,         Poland      (CPPh in RESPONS)
  Joanna Kauczor,           Linkoeping University,        Sweden      (Complex polarization propagator (CPP) module)
  Sheela Kirpekar,          Univ. of Southern Denmark,    Denmark     (Mass-velocity & Darwin integrals)
  Erik Kjellgren,           Univ. of Southern Denmark,    Denmark     (MC-srDFT)
  Wim Klopper,              KIT Karlsruhe,                Germany     (R12 code in CC, SIRIUS, and ABACUS modules)
  Stefan Knecht,            ETH Zurich,                   Switzerland (Parallel CI and MCSCF, MC-srDFT)
  Rika Kobayashi,           Australian National Univ.,    Australia   (DIIS in CC, London in MCSCF)
  Henrik Koch,              NTNU,                         Norway      (CC module, Cholesky decomposition)
  Jacob Kongsted,           Univ. of Southern Denmark,    Denmark     (Polarizable embedding, polarizable density embedding, QM/MM)
  Andrea Ligabue,           University of Modena,         Italy       (CTOCD, AOSOPPA)
  Nanna H. List             Univ. of Southern Denmark,    Denmark     (Polarizable embedding)
  Ola B. Lutnaes,           University of Oslo,           Norway      (DFT Hessian)
  Juan I. Melo,             University of Buenos Aires,   Argentina   (LRESC, Relativistic Effects on NMR Shieldings)
  Kurt V. Mikkelsen,        University of Copenhagen,     Denmark     (MC-SCRF and QM/MM)
  Rolf H. Myhre,            NTNU,                         Norway      (Subsystems and CC3)
  Christian Neiss,          Univ. Erlangen-Nuernberg,     Germany     (CCSD(R12))
  Christian B. Nielsen,     University of Copenhagen,     Denmark     (QM/MM)
  Patrick Norman,           KTH Stockholm,                Sweden      (Cubic response and complex frequency response in RESPONS)
  Jeppe Olsen,              Aarhus University,            Denmark     (SIRIUS CI/density modules)
  Jogvan Magnus H. Olsen,   Aarhus University,            Denmark     (Polarizable embedding and polarizable density embedding)
  Anders Osted,             Copenhagen University,        Denmark     (QM/MM)
  Martin J. Packer,         University of Sheffield,      UK          (SOPPA)
  Filip Pawlowski,          Kazimierz Wielki University,  Poland      (CC3)
  Morten N. Pedersen,       Univ. of Southern Denmark,    Denmark     (Polarizable embedding)
  Thomas B. Pedersen,       University of Oslo,           Norway      (Cholesky decomposition)
  Patricio F. Provasi,      University of Northeastern,   Argentina   (Analysis of coupling constants in localized orbitals)
  Peter Reinholdt,          Univ. of Southern Denmark,    Denmark     (Polarizable embedding and polarizable density embedding)
  Zilvinas Rinkevicius,     KTH Stockholm,                Sweden      (open-shell DFT, ESR)
  Elias Rudberg,            KTH Stockholm,                Sweden      (DFT grid and basis info)
  Torgeir A. Ruden,         University of Oslo,           Norway      (Numerical derivatives in ABACUS)
  Kenneth Ruud,             UiT The Arctic U. of Norway,  Norway      (DALTON; ABACUS magnetic properties and much more)
  Pawel Salek,              KTH Stockholm,                Sweden      (DALTON; DFT code)
  Claire C. M. Samson       University of Karlsruhe       Germany     (Boys localization, r12 integrals in ERI)
  Alfredo Sanchez de Meras, University of Valencia,       Spain       (CC module, Cholesky decomposition)
  Trond Saue,               Paul Sabatier University,     France      (direct Fock matrix construction)
  Stephan P. A. Sauer,      University of Copenhagen,     Denmark     (SOPPA(CCSD), SOPPA prop., AOSOPPA, vibrational g-factors)
  Bernd Schimmelpfennig,    Forschungszentrum Karlsruhe,  Germany     (AMFI module)
  Anna K. Schnack-Petersen, University of Copenhagen,     Denmark     (RPA(D) and HRPA(D) properties in AOSOPPA)
  Kristian Sneskov,         Aarhus University,            Denmark     (Polarizable embedding, QM/MM)
  Arnfinn H. Steindal,      UiT The Arctic U. of Norway,  Norway      (parallel QM/MM, polarizable embedding)
  Casper Steinmann,         Aalborg University,           Denmark     (QFIT, polarizable embedding)
  K. O. Sylvester-Hvid,     University of Copenhagen,     Denmark     (MC-SCRF)
  Peter R. Taylor,          VLSCI/Univ. of Melbourne,     Australia   (Symmetry handling ABACUS, integral transformation)
  Andrew M. Teale,          University of Nottingham,     England     (DFT-AC, DFT-D)
  David P. Tew,             University of Bristol,        England     (CCSD(R12))
  Julien Toulouse,          Sorbonne Univ.,               France      (MC-srDFT)
  Olav Vahtras,             KTH Stockholm,                Sweden      (Triplet response, spin-orbit, ESR, TDDFT, open-shell DFT)
  Lucas Visscher,           Vrije Universiteit Amsterdam, Netherlands (Frozen density embedding)
  David J. Wilson,          La Trobe University,          Australia   (DFT Hessian and DFT magnetizabilities)
  Hans Agren,               KTH Stockholm,                Sweden      (SIRIUS module, RESPONS, MC-SCRF solvation)
 --------------------------------------------------------------------------------

     Date and time (Linux)  : Wed May  7 10:09:27 2025
     Host name              : xm048                                   

 * Work memory size             :  1310720000 =  9.766 gigabytes.

 * Directories for basis set searches:
   1) /gpfs/projects/rjh/adrian/summer2025/beta_projects/raw_data/NLO/dalton/hf/n4/dipole
   2) /gpfs/projects/rjh/adrian/dalton/build/basis


Compilation information
-----------------------

 Who compiled             | ahurtado
 Host                     | milan2
 System                   | Linux-5.14.0-427.42.1.el9_4.x86_64
 CMake generator          | Unix Makefiles
 Processor                | x86_64
 64-bit integers          | OFF
 MPI                      | ON
 Fortran compiler         | /gpfs/software/openmpi/milan/gcc13.2/4.1.6/bin/mpi
                          | f90
 Fortran compiler version | GNU Fortran (GCC) 13.2.0
 C compiler               | /gpfs/software/openmpi/milan/gcc13.2/4.1.6/bin/mpi
                          | cc
 C compiler version       | gcc (GCC) 13.2.0
 C++ compiler             | /gpfs/software/openmpi/milan/gcc13.2/4.1.6/bin/mpi
                          | cxx
 C++ compiler version     | unknown
 BLAS                     | /gpfs/software/intel/oneAPI/2024_2/mkl/2024.2/lib/
                          | intel64/libmkl_gf_lp64.so;/gpfs/software/intel/one
                          | API/2024_2/mkl/2024.2/lib/intel64/libmkl_sequentia
                          | l.so;/gpfs/software/intel/oneAPI/2024_2/mkl/2024.2
                          | /lib/intel64/libmkl_core.so;/usr/lib64/libpthread.
                          | a;/usr/lib64/libm.so
 LAPACK                   | /gpfs/software/intel/oneAPI/2024_2/mkl/2024.2/lib/
                          | intel64/libmkl_lapack95_lp64.a;/gpfs/software/inte
                          | l/oneAPI/2024_2/mkl/2024.2/lib/intel64/libmkl_gf_l
                          | p64.so
 Static linking           | OFF
 Last Git revision        | 66052b3af5ea7225e31178bf9a8b031913c72190
 Git branch               | (HEAD detached at Dalton2020.0)
 Configuration time       | 2025-04-10 16:02:31.569498

 * MPI parallel run using 96 processes.


   Content of the .dal input file
 ----------------------------------

**DALTON INPUT
.RUN RESPONSE
.DIRECT
**WAVE FUNCTIONS
.HF
**PROPERTIES
**RESPONSE
*QUADRA
.DIPLEN
.FREQUENCIES
3
0.0 0.01748125 0.0349625
**END OF DALTON INPUT


   Content of the .mol file
 ----------------------------

BASIS
d-aug-cc-pVTZ
blah
blah
Atomtype=4 Angstrom Charge=0 Nosymmetry
Charge=6 Atoms=8
C_a -1.1882749990853696 5.117256998104514 0.0
C_b -1.5969329996265353 3.809735999842726 0.0
C_c -0.6564090019655506 2.7190129991747667 0.0
C_d -0.9857789998795103 1.387195998766701 0.0
C_e 0.0 0.33539000253089535 0.0
C_f -0.2866469975212757 -1.0046079981775466 0.0
C_g 0.7451960001128884 -2.0162560006291397 0.0
C_h 0.49348400143119636 -3.346346999604479 0.0
Charge=7 Atoms=2
N_a -1.9995219990328295 6.216471001666405 0.0
N_b 1.57848899891635 -4.318030999345519 0.0
Charge=8 Atoms=2
O_a 2.744088997946027 -3.913927002627481 0.0
O_b 1.2323250012939346 -5.50623099814482 0.0
Charge=1 Atoms=10
H_a -0.11499899751206023 5.345406000328604 0.0
H_b -2.670389000828054 3.577750002457105 0.0
H_c -3.0058400016160234 6.118605000075728 0.0
H_d -1.6131520006696491 7.147926002625104 0.0
H_e 0.4128139996006046 2.9826160013713494 0.0
H_f -2.0460389989386774 1.0977839974019534 0.0
H_g 1.0580160019302323 0.6387760023731218 0.0
H_h -1.3358889978770827 -1.3294699989350738 0.0
H_i 1.795708999460371 -1.7003540019438161 0.0
H_j -0.492141997441393 -3.815153001736331 0.0


       *******************************************************************
       *********** Output from DALTON general input processing ***********
       *******************************************************************

 --------------------------------------------------------------------------------
   Overall default print level:    0
   Print level for DALTON.STAT:    1

    Parallel calculation using MPI
    AO-direct calculation (in sections where implemented)
    HERMIT 1- and 2-electron integral sections will be executed
    "Old" integral transformation used (limited to max 255 basis functions)
    Wave function sections will be executed (SIRIUS module)
    Dynamic molecular response properties section will be executed (RESPONSE module)
 --------------------------------------------------------------------------------


   ****************************************************************************
   *************** Output of molecule and basis set information ***************
   ****************************************************************************


    The two title cards from your ".mol" input:
    ------------------------------------------------------------------------
 1: blah                                                                    
 2: blah                                                                    
    ------------------------------------------------------------------------

  Coordinates are entered in Angstrom and converted to atomic units.
          - Conversion factor : 1 bohr = 0.52917721 A

  Atomic type no.    1
  --------------------
  Nuclear charge:   6.00000
  Number of symmetry independent centers:    8
  Number of basis sets to read;    2
  Basis set file used for this atomic type with Z =   6 :
     "/gpfs/projects/rjh/adrian/dalton/build/basis/aug-cc-pVTZ"

  Atomic type no.    2
  --------------------
  Nuclear charge:   7.00000
  Number of symmetry independent centers:    2
  Number of basis sets to read;    2
  Basis set file used for this atomic type with Z =   7 :
     "/gpfs/projects/rjh/adrian/dalton/build/basis/aug-cc-pVTZ"

  Atomic type no.    3
  --------------------
  Nuclear charge:   8.00000
  Number of symmetry independent centers:    2
  Number of basis sets to read;    2
  Basis set file used for this atomic type with Z =   8 :
     "/gpfs/projects/rjh/adrian/dalton/build/basis/aug-cc-pVTZ"

  Atomic type no.    4
  --------------------
  Nuclear charge:   1.00000
  Number of symmetry independent centers:   10
  Number of basis sets to read;    2
  Basis set file used for this atomic type with Z =   1 :
     "/gpfs/projects/rjh/adrian/dalton/build/basis/aug-cc-pVTZ"


                         SYMGRP: Point group information
                         -------------------------------

@    Point group: C1 


                                 Isotopic Masses
                                 ---------------

                           C_a        12.000000
                           C_b        12.000000
                           C_c        12.000000
                           C_d        12.000000
                           C_e        12.000000
                           C_f        12.000000
                           C_g        12.000000
                           C_h        12.000000
                           N_a        14.003074
                           N_b        14.003074
                           O_a        15.994915
                           O_b        15.994915
                           H_a         1.007825
                           H_b         1.007825
                           H_c         1.007825
                           H_d         1.007825
                           H_e         1.007825
                           H_f         1.007825
                           H_g         1.007825
                           H_h         1.007825
                           H_i         1.007825
                           H_j         1.007825

                       Total mass:   166.074228 amu
                       Natural abundance:  90.284 %

 Center-of-mass coordinates (a.u.):    0.090208   -0.225905    0.000000
 Center-of-mass coordinates (Angs):    0.047736   -0.119544    0.000000


  Atoms and basis sets
  --------------------

  Number of atom types :    4
  Total number of atoms:   22

  Basis set used is "d-aug-cc-pVTZ" from the basis set library.

  label    atoms   charge   prim   cont     basis
  ----------------------------------------------------------------------
  C_          8    6.0000    74    62      [12s7p4d3f|6s5p4d3f]                               
  N_          2    7.0000    74    62      [12s7p4d3f|6s5p4d3f]                               
  O_          2    8.0000    74    62      [12s7p4d3f|6s5p4d3f]                               
  H_         10    1.0000    34    32      [7s4p3d|5s4p3d]                                    
  ----------------------------------------------------------------------
  total:     22   88.0000  1228  1064
  ----------------------------------------------------------------------
  Spherical harmonic basis used.

  Threshold for neglecting AO integrals:  1.00D-12

  Max    interatomic separation is   12.9701 Angstrom (   24.5100 Bohr)
  between atoms   16 and   12, "H_d   " and "O_b   ".

  Min HX interatomic separation is    1.0084 Angstrom (    1.9056 Bohr)

  Min YX interatomic separation is    1.2337 Angstrom (    2.3313 Bohr)


  Bond distances (Angstrom):
  --------------------------

                  atom 1     atom 2       distance
                  ------     ------       --------
  bond distance:  C_b        C_a          1.369895
  bond distance:  C_c        C_b          1.440230
  bond distance:  C_d        C_c          1.371941
  bond distance:  C_e        C_d          1.441546
  bond distance:  C_f        C_e          1.370314
  bond distance:  C_g        C_f          1.445037
  bond distance:  C_h        C_g          1.353699
  bond distance:  N_a        C_a          1.366160
  bond distance:  N_b        C_h          1.456505
  bond distance:  O_a        N_b          1.233663
  bond distance:  O_b        N_b          1.237598
  bond distance:  H_a        C_a          1.097257
  bond distance:  H_b        C_b          1.098237
  bond distance:  H_c        N_a          1.011066
  bond distance:  H_d        N_a          1.008410
  bond distance:  H_e        C_c          1.101238
  bond distance:  H_f        C_d          1.099050
  bond distance:  H_g        C_e          1.100655
  bond distance:  H_h        C_f          1.098382
  bond distance:  H_i        C_g          1.096983
  bond distance:  H_j        C_h          1.091438


  Bond angles (degrees):
  ----------------------

                  atom 1     atom 2     atom 3         angle
                  ------     ------     ------         -----
  bond angle:     C_b        C_a        N_a          126.215
  bond angle:     C_b        C_a        H_a          119.357
  bond angle:     N_a        C_a        H_a          114.427
  bond angle:     C_a        C_b        C_c          121.873
  bond angle:     C_a        C_b        H_b          119.551
  bond angle:     C_c        C_b        H_b          118.576
  bond angle:     C_b        C_c        C_d          125.338
  bond angle:     C_b        C_c        H_e          116.922
  bond angle:     C_d        C_c        H_e          117.740
  bond angle:     C_c        C_d        C_e          122.965
  bond angle:     C_c        C_d        H_f          119.159
  bond angle:     C_e        C_d        H_f          117.876
  bond angle:     C_d        C_e        C_f          124.781
  bond angle:     C_d        C_e        H_g          117.144
  bond angle:     C_f        C_e        H_g          118.075
  bond angle:     C_e        C_f        C_g          122.359
  bond angle:     C_e        C_f        H_h          119.278
  bond angle:     C_g        C_f        H_h          118.363
  bond angle:     C_f        C_g        C_h          123.718
  bond angle:     C_f        C_g        H_i          118.830
  bond angle:     C_h        C_g        H_i          117.453
  bond angle:     C_g        C_h        N_b          121.130
  bond angle:     C_g        C_h        H_j          126.154
  bond angle:     N_b        C_h        H_j          112.716
  bond angle:     C_a        N_a        H_c          120.874
  bond angle:     C_a        N_a        H_d          121.043
  bond angle:     H_c        N_a        H_d          118.083
  bond angle:     C_h        N_b        O_a          119.033
  bond angle:     C_h        N_b        O_b          115.604
  bond angle:     O_a        N_b        O_b          125.364




 Principal moments of inertia (u*A**2) and principal axes
 --------------------------------------------------------

   IA      70.354815         -0.316751    0.948509    0.000000
   IB    2757.102656          0.948509    0.316751    0.000000
   IC    2827.457470          0.000000    0.000000    1.000000


 Rotational constants
 --------------------

@    The molecule is planar.

               A                   B                   C

           7183.2896            183.3008            178.7397 MHz
            0.239609            0.006114            0.005962 cm-1


@  Nuclear repulsion energy :  574.625117125708 Hartree


                     .---------------------------------------.
                     | Starting in Integral Section (HERMIT) |
                     `---------------------------------------'



 ***************************************************************************************
 ****************** Output from **INTEGRALS input processing (HERMIT) ******************
 ***************************************************************************************


 - Using defaults, no **INTEGRALS input found

 Default print level:        1

 Calculation of one-electron Hamiltonian integrals.

 Center of mass  (bohr):      0.090207604024     -0.225905365811      0.000000000000
 Operator center (bohr):      0.000000000000      0.000000000000      0.000000000000
 Gauge origin    (bohr):      0.000000000000      0.000000000000      0.000000000000
 Dipole origin   (bohr):      0.000000000000      0.000000000000      0.000000000000


     ************************************************************************
     ************************** Output from HERINT **************************
     ************************************************************************



                      Nuclear contribution to dipole moments
                      --------------------------------------

                 au               Debye          C m (/(10**-30)

      x     -0.00001508        -0.00003833        -0.00012785
      y     -0.00002265        -0.00005757        -0.00019203
      z      0.00000000         0.00000000         0.00000000


  Time used in ONEDRV     is       1.63 seconds
  Time used in HUCKEL     is       0.43 seconds
  Time used in OVERLAP    is       0.25 seconds
  Time used in POPOVLP    is       0.48 seconds
  Time used in R2         is       0.32 seconds
  Time used in R4         is       0.38 seconds
  Time used in DIPLEN     is       0.42 seconds
  Time used in QUADRUP    is       0.85 seconds
  Time used in KINENE     is       0.44 seconds
  Time used in GABGEN     is       4.89 seconds
  Total CPU  time used in HERMIT:  10.09 seconds
  Total wall time used in HERMIT:  10.22 seconds


                        .----------------------------------.
                        | End of Integral Section (HERMIT) |
                        `----------------------------------'



                   .--------------------------------------------.
                   | Starting in Wave Function Section (SIRIUS) |
                   `--------------------------------------------'



@ Primary orbitals are deleted during canonical orthonormalization
@   because of detected numerical linear dependence or too large coefficients.
@ Eigenvalue threshold for num. lin. dep. =  1.00D-06

@  46 MO components are deleted in symmetry    1
 Overlap eigenvalues of the deleted orbitals:
  9.15D-07  9.05D-07  7.43D-07  7.04D-07  6.55D-07
  6.25D-07  5.56D-07  4.94D-07  4.83D-07  4.77D-07
  4.53D-07  4.02D-07  3.69D-07  3.39D-07  2.96D-07
  2.66D-07  2.55D-07  2.47D-07  2.19D-07  1.76D-07
  1.68D-07  1.65D-07  1.39D-07  1.36D-07  1.11D-07
  1.08D-07  9.14D-08  8.84D-08  8.42D-08  8.10D-08
  7.50D-08  6.71D-08  5.68D-08  5.03D-08  4.04D-08
  3.93D-08  3.56D-08  3.11D-08  2.64D-08  1.92D-08
  1.76D-08  1.52D-08  1.40D-08  1.13D-08  4.69D-09
  2.64D-09

 Max MO coeff. of last deleted MO & limit:  3.23D+02  1.00D+03

WARNING: Orbitals have been deleted because of numerical
   linear dependence although not requested in input.

 *** Output from Huckel module :

     Using EWMO model:          T
     Using EHT  model:          F
     Number of Huckel orbitals each symmetry:   70

 EWMO - Energy Weighted Maximum Overlap - is a Huckel type method,
        which normally is better than Extended Huckel Theory.
 Reference: Linderberg and Ohrn, Propagators in Quantum Chemistry (Wiley, 1973)

 Huckel EWMO eigenvalues for symmetry :  1
          -20.684751     -20.683481     -15.677073     -15.674988     -11.359146
          -11.358653     -11.356154     -11.352584     -11.347974     -11.346240
          -11.345424     -11.345374      -1.964162      -1.788082      -1.734786
           -1.596046      -1.447484      -1.387161      -1.184566      -1.157865
           -1.049213      -0.965971      -0.906339      -0.851949      -0.832685
           -0.754031      -0.750101      -0.745427      -0.670108      -0.663157
           -0.633145      -0.596679      -0.585930      -0.560104      -0.541106
           -0.538394      -0.508141      -0.496618      -0.484080      -0.482371
           -0.461805      -0.453057      -0.387938      -0.383238      -0.333745
           -0.273894      -0.234058      -0.229197      -0.209688      -0.201310
           -0.197331      -0.190415      -0.166296      -0.142751      -0.138050
           -0.131383      -0.129230      -0.128854      -0.126770      -0.126476
           -0.124464      -0.123265      -0.109230      -0.103580      -0.097345
           -0.092683      -0.088052      -0.086885      -0.083314      -0.079948

 **********************************************************************
 *SIRIUS* a direct, restricted step, second order MCSCF program       *
 **********************************************************************

 
     Date and time (Linux)  : Wed May  7 10:10:37 2025
     Host name              : xm048                                   

 Title lines from ".mol" input file:
     blah                                                                    
     blah                                                                    

 Print level on unit LUPRI =   2 is   0
 Print level on unit LUW4  =   2 is   5

@    Restricted, closed shell Hartree-Fock calculation.

@    Time-dependent Hartree-Fock calculation (random phase approximation).
 Fock matrices are calculated directly and in parallel without use of integrals on disk.

 Initial molecular orbitals are obtained according to
 ".MOSTART EWMO  " input option

     Wave function specification
     ============================
@    Wave function type        --- HF ---
@    Number of closed shell electrons          88
@    Number of electrons in active shells       0
@    Total charge of the molecule               0

@    Spin multiplicity and 2 M_S                1         0
@    Total number of symmetries                 1 (point group: C1 )
@    Reference state symmetry                   1 (irrep name : A  )

     Orbital specifications
     ======================
@    Abelian symmetry species          All |    1
@                                          |  A  
                                       --- |  ---
@    Occupied SCF orbitals              44 |   44
@    Secondary orbitals                974 |  974
@    Total number of orbitals         1018 | 1018
@    Number of basis functions        1064 | 1064

     Optimization information
     ========================
@    Number of configurations                 1
@    Number of orbital rotations          42856
     ------------------------------------------
@    Total number of variables            42857

     Maximum number of Fock   iterations      0
     Maximum number of DIIS   iterations     60
     Maximum number of QC-SCF iterations     60
     Threshold for SCF convergence     1.00D-05

    INFORMATION: Switched to "new" integral transformation (from 1988 ;-) )
    because more than 255 basis functions.


 ***********************************************
 ***** DIIS acceleration of SCF iterations *****
 ***********************************************

 C1-DIIS algorithm; max error vectors =    8

 Iter      Total energy        Error norm    Delta(E)  DIIS dim.
 -----------------------------------------------------------------------------
   1  Screening settings (-IFTHRS, JTDIIS, DIFDEN, times)  -10    1    T  6.75D+01  6.81D+01
@  1    -565.058608729        6.17744D+00   -5.65D+02    1
      Virial theorem: -V/T =      2.006512
@    MULPOP   C_a     0.57; C_b     0.15; C_c     0.31; C_d     0.20; C_e     0.36; C_f     0.20; C_g     0.32; C_h     0.23; N_a    -0.90; N_b     0.03; 
@             O_a    -0.73; O_b    -0.74; H_a     0.05; H_b     0.06; H_c     0.27; H_d     0.35; H_e    -0.24; H_f    -0.28; H_g    -0.24; H_h    -0.13; 
@             H_i    -0.09; H_j     0.26; 
   1  Level shift: doubly occupied orbital energies shifted by -2.00D-01
 -----------------------------------------------------------------------------
   2  Screening settings (-IFTHRS, JTDIIS, DIFDEN, times)  -10    2    T  6.31D+01  6.35D+01
@  2    -566.992375846        2.86868D+00   -1.93D+00    2
      Virial theorem: -V/T =      2.001990
@    MULPOP   C_a     0.00; C_b     0.00; C_c     0.01; C_d     0.04; C_e     0.10; C_f     0.30; C_g     0.08; C_h    -0.24; N_a    -0.86; N_b    -0.23; 
@             O_a    -0.65; O_b    -0.68; H_a     0.61; H_b     0.44; H_c    -0.04; H_d     0.13; H_e    -0.06; H_f    -0.11; H_g    -0.03; H_h     0.09; 
@             H_i     0.23; H_j     0.89; 
   2  Level shift: doubly occupied orbital energies shifted by -1.00D-01
 -----------------------------------------------------------------------------
   3  Screening settings (-IFTHRS, JTDIIS, DIFDEN, times)  -10    3    T  6.28D+01  6.32D+01
@  3    -567.368573518        7.19988D-01   -3.76D-01    3
      Virial theorem: -V/T =      2.001390
@    MULPOP   C_a     0.21; C_b    -0.16; C_c     0.04; C_d     0.02; C_e     0.04; C_f     0.26; C_g    -0.00; C_h     0.13; N_a    -0.93; N_b     0.51; 
@             O_a    -1.03; O_b    -1.19; H_a     0.59; H_b     0.42; H_c    -0.11; H_d     0.08; H_e    -0.03; H_f    -0.07; H_g     0.01; H_h     0.10; 
@             H_i     0.27; H_j     0.84; 
   3  Level shift: doubly occupied orbital energies shifted by -5.00D-02
 -----------------------------------------------------------------------------
   4  Screening settings (-IFTHRS, JTDIIS, DIFDEN, times)  -10    4    T  6.27D+01  6.29D+01
@  4    -567.402881463        2.30414D-01   -3.43D-02    4
      Virial theorem: -V/T =      2.003306
@    MULPOP   C_a     0.31; C_b    -0.20; C_c     0.10; C_d     0.06; C_e     0.07; C_f     0.23; C_g     0.01; C_h     0.12; N_a    -0.98; N_b     0.47; 
@             O_a    -1.01; O_b    -1.18; H_a     0.57; H_b     0.40; H_c    -0.13; H_d     0.06; H_e    -0.04; H_f    -0.07; H_g     0.00; H_h     0.10; 
@             H_i     0.28; H_j     0.83; 
   4  Level shift: doubly occupied orbital energies shifted by -2.50D-02
 -----------------------------------------------------------------------------
   5  Screening settings (-IFTHRS, JTDIIS, DIFDEN, times)  -10    5    T  6.24D+01  6.26D+01
@  5    -567.409395489        8.86839D-02   -6.51D-03    5
      Virial theorem: -V/T =      2.002693
@    MULPOP   C_a     0.29; C_b    -0.21; C_c     0.09; C_d     0.05; C_e     0.06; C_f     0.23; C_g    -0.02; C_h     0.14; N_a    -1.00; N_b     0.53; 
@             O_a    -1.02; O_b    -1.21; H_a     0.59; H_b     0.41; H_c    -0.14; H_d     0.06; H_e    -0.03; H_f    -0.06; H_g     0.02; H_h     0.11; 
@             H_i     0.29; H_j     0.83; 
   5  Level shift: doubly occupied orbital energies shifted by -1.25D-02
 -----------------------------------------------------------------------------
   6  Screening settings (-IFTHRS, JTDIIS, DIFDEN, times)  -14    6    F  6.46D+01  6.48D+01
@  6    -567.410911991        4.12310D-02   -1.52D-03    6
      Virial theorem: -V/T =      2.002535
@    MULPOP   C_a     0.28; C_b    -0.21; C_c     0.09; C_d     0.05; C_e     0.07; C_f     0.22; C_g    -0.01; C_h     0.12; N_a    -1.00; N_b     0.53; 
@             O_a    -1.02; O_b    -1.21; H_a     0.59; H_b     0.41; H_c    -0.14; H_d     0.07; H_e    -0.03; H_f    -0.06; H_g     0.02; H_h     0.11; 
@             H_i     0.29; H_j     0.83; 
 -----------------------------------------------------------------------------
   7  Screening settings (-IFTHRS, JTDIIS, DIFDEN, times)  -14    7    T  6.43D+01  6.44D+01
@  7    -567.411294543        1.97664D-02   -3.83D-04    7
      Virial theorem: -V/T =      2.002585
@    MULPOP   C_a     0.28; C_b    -0.21; C_c     0.10; C_d     0.05; C_e     0.07; C_f     0.22; C_g    -0.02; C_h     0.12; N_a    -1.00; N_b     0.53; 
@             O_a    -1.02; O_b    -1.21; H_a     0.59; H_b     0.41; H_c    -0.14; H_d     0.07; H_e    -0.03; H_f    -0.06; H_g     0.02; H_h     0.11; 
@             H_i     0.29; H_j     0.83; 
 -----------------------------------------------------------------------------
   8  Screening settings (-IFTHRS, JTDIIS, DIFDEN, times)  -14    8    T  6.41D+01  6.43D+01
@  8    -567.411372686        7.90472D-03   -7.81D-05    8
      Virial theorem: -V/T =      2.002581
@    MULPOP   C_a     0.28; C_b    -0.21; C_c     0.10; C_d     0.05; C_e     0.07; C_f     0.22; C_g    -0.02; C_h     0.12; N_a    -1.00; N_b     0.54; 
@             O_a    -1.02; O_b    -1.21; H_a     0.59; H_b     0.41; H_c    -0.14; H_d     0.06; H_e    -0.03; H_f    -0.06; H_g     0.02; H_h     0.11; 
@             H_i     0.29; H_j     0.83; 
 -----------------------------------------------------------------------------
   9  Screening settings (-IFTHRS, JTDIIS, DIFDEN, times)  -14    9    T  6.39D+01  6.41D+01
@  9    -567.411384102        2.68128D-03   -1.14D-05    8
      Virial theorem: -V/T =      2.002570
@    MULPOP   C_a     0.28; C_b    -0.21; C_c     0.10; C_d     0.05; C_e     0.07; C_f     0.22; C_g    -0.02; C_h     0.12; N_a    -1.00; N_b     0.54; 
@             O_a    -1.02; O_b    -1.21; H_a     0.59; H_b     0.41; H_c    -0.14; H_d     0.06; H_e    -0.03; H_f    -0.06; H_g     0.02; H_h     0.11; 
@             H_i     0.29; H_j     0.83; 
 -----------------------------------------------------------------------------
  10  Screening settings (-IFTHRS, JTDIIS, DIFDEN, times)  -14   10    T  6.38D+01  6.39D+01
@ 10    -567.411386013        1.31382D-03   -1.91D-06    8
      Virial theorem: -V/T =      2.002571
@    MULPOP   C_a     0.28; C_b    -0.21; C_c     0.10; C_d     0.05; C_e     0.07; C_f     0.22; C_g    -0.02; C_h     0.12; N_a    -1.00; N_b     0.54; 
@             O_a    -1.02; O_b    -1.21; H_a     0.59; H_b     0.41; H_c    -0.14; H_d     0.06; H_e    -0.03; H_f    -0.06; H_g     0.02; H_h     0.11; 
@             H_i     0.29; H_j     0.83; 
 -----------------------------------------------------------------------------
  11  Screening settings (-IFTHRS, JTDIIS, DIFDEN, times)  -14   11    T  6.36D+01  6.38D+01
@ 11    -567.411386532        7.17350D-04   -5.19D-07    8
      Virial theorem: -V/T =      2.002572
@    MULPOP   C_a     0.28; C_b    -0.21; C_c     0.10; C_d     0.05; C_e     0.07; C_f     0.22; C_g    -0.02; C_h     0.12; N_a    -1.00; N_b     0.54; 
@             O_a    -1.02; O_b    -1.21; H_a     0.59; H_b     0.41; H_c    -0.14; H_d     0.06; H_e    -0.03; H_f    -0.06; H_g     0.02; H_h     0.11; 
@             H_i     0.29; H_j     0.83; 
 -----------------------------------------------------------------------------
  12  Screening settings (-IFTHRS, JTDIIS, DIFDEN, times)  -14   12    T  6.32D+01  6.37D+01
@ 12    -567.411386693        2.02143D-04   -1.61D-07    8
      Virial theorem: -V/T =      2.002571
@    MULPOP   C_a     0.28; C_b    -0.21; C_c     0.10; C_d     0.05; C_e     0.07; C_f     0.22; C_g    -0.02; C_h     0.12; N_a    -1.00; N_b     0.54; 
@             O_a    -1.02; O_b    -1.21; H_a     0.59; H_b     0.41; H_c    -0.14; H_d     0.06; H_e    -0.03; H_f    -0.06; H_g     0.02; H_h     0.11; 
@             H_i     0.29; H_j     0.83; 
 -----------------------------------------------------------------------------
  13  Screening settings (-IFTHRS, JTDIIS, DIFDEN, times)  -14   13    T  6.30D+01  6.34D+01
@ 13    -567.411386707        8.97985D-05   -1.36D-08    8
      Virial theorem: -V/T =      2.002571
@    MULPOP   C_a     0.28; C_b    -0.21; C_c     0.10; C_d     0.05; C_e     0.07; C_f     0.22; C_g    -0.02; C_h     0.12; N_a    -1.00; N_b     0.54; 
@             O_a    -1.02; O_b    -1.21; H_a     0.59; H_b     0.41; H_c    -0.14; H_d     0.06; H_e    -0.03; H_f    -0.06; H_g     0.02; H_h     0.11; 
@             H_i     0.29; H_j     0.83; 
 -----------------------------------------------------------------------------
  14  Screening settings (-IFTHRS, JTDIIS, DIFDEN, times)  -14   14    T  6.29D+01  6.31D+01
@ 14    -567.411386708        2.71912D-05   -1.23D-09    8
      Virial theorem: -V/T =      2.002571
@    MULPOP   C_a     0.28; C_b    -0.21; C_c     0.10; C_d     0.05; C_e     0.07; C_f     0.22; C_g    -0.02; C_h     0.12; N_a    -1.00; N_b     0.54; 
@             O_a    -1.02; O_b    -1.21; H_a     0.59; H_b     0.41; H_c    -0.14; H_d     0.06; H_e    -0.03; H_f    -0.06; H_g     0.02; H_h     0.11; 
@             H_i     0.29; H_j     0.83; 
 -----------------------------------------------------------------------------
  15  Screening settings (-IFTHRS, JTDIIS, DIFDEN, times)  -14   15    T  6.25D+01  6.26D+01
@ 15    -567.411386708        1.11624D-05   -1.30D-10    8
      Virial theorem: -V/T =      2.002571
@    MULPOP   C_a     0.28; C_b    -0.21; C_c     0.10; C_d     0.05; C_e     0.07; C_f     0.22; C_g    -0.02; C_h     0.12; N_a    -1.00; N_b     0.54; 
@             O_a    -1.02; O_b    -1.21; H_a     0.59; H_b     0.41; H_c    -0.14; H_d     0.06; H_e    -0.03; H_f    -0.06; H_g     0.02; H_h     0.11; 
@             H_i     0.29; H_j     0.83; 
 -----------------------------------------------------------------------------
  16  Screening settings (-IFTHRS, JTDIIS, DIFDEN, times)  -14   16    T  6.25D+01  6.26D+01
@ 16    -567.411386708        5.31228D-06   -1.77D-11    8

@ *** DIIS converged in  16 iterations !
@     Converged SCF energy, gradient:   -567.411386707933    5.31D-06
    - total time used in SIRFCK :              0.00 seconds


 *** SCF orbital energy analysis ***

 Only the 20 lowest virtual orbital energies printed in each symmetry.

 Number of electrons :   88
 Orbital occupations :   44

 Sym       Hartree-Fock orbital energies

1 A     -20.58072476   -20.57796557   -15.83156561   -15.60594318   -11.31892706
        -11.28306545   -11.27943398   -11.27391196   -11.27280888   -11.24841183
        -11.24150740   -11.23896391    -1.57110203    -1.36868317    -1.25148197
         -1.13529811    -1.10787861    -1.06338815    -1.00277689    -0.93589695
         -0.85452813    -0.80573732    -0.78122942    -0.77651724    -0.73374196
         -0.72908391    -0.70629518    -0.68936275    -0.68835766    -0.64291550
         -0.63658466    -0.59461482    -0.56943863    -0.55962524    -0.53817358
         -0.53446678    -0.51756738    -0.48438837    -0.47450040    -0.47152264
         -0.43438379    -0.43271383    -0.35887557    -0.27007148    -0.00185177
          0.00386908     0.00768331     0.01119384     0.01174594     0.01450105
          0.01712365     0.01791192     0.02031140     0.02150237     0.02234724
          0.02288064     0.02391480     0.02661844     0.02847322     0.02992324
          0.03182593     0.03271761     0.03302243     0.03457994

    E(LUMO) :    -0.00185177 au (symmetry 1)
  - E(HOMO) :    -0.27007148 au (symmetry 1)
  ------------------------------------------
    gap     :     0.26821971 au

 --- Writing SIRIFC interface file

 CPU and wall time for SCF :    1144.339    1149.304


                       .-----------------------------------.
                       | --- Final results from SIRIUS --- |
                       `-----------------------------------'


@    Spin multiplicity:           1
@    Spatial symmetry:            1 ( irrep  A   in C1  )
@    Total charge of molecule:    0

@    Final HF energy:            -567.411386707933                 
@    Nuclear repulsion:           574.625117125708
@    Electronic energy:         -1142.036503833641

@    Final gradient norm:           0.000005312279

 
     Date and time (Linux)  : Wed May  7 10:29:49 2025
     Host name              : xm048                                   

File label for MO orbitals:   7May25   FOCKDIIS

 (Only coefficients > 0.0100 are printed.)

 Molecular orbitals for symmetry species 1  (A  )
 ------------------------------------------------

    Orbital        35       36       37       38       39       40       41
   2 C_a :1s     0.0000  -0.0386   0.0120   0.0000  -0.0068   0.0012   0.0000
   4 C_a :1s     0.0000   0.0065  -0.1024   0.0000   0.0143  -0.0127   0.0000
   5 C_a :1s    -0.0000   0.0157  -0.0472  -0.0000  -0.0339   0.0482  -0.0000
   6 C_a :1s    -0.0000  -0.0468  -0.1497  -0.0000  -0.0050   0.0346  -0.0000
   7 C_a :2px    0.0000   0.1511  -0.0498  -0.0000   0.0013  -0.0007   0.0000
   8 C_a :2py    0.0000   0.1051  -0.0184   0.0000   0.0112  -0.0019   0.0000
   9 C_a :2pz    0.4228   0.0000   0.0000  -0.0490   0.0000  -0.0000  -0.0250
  13 C_a :2px   -0.0000   0.1016  -0.0050   0.0000  -0.0508   0.0143  -0.0000
  14 C_a :2py   -0.0000  -0.0327   0.0165   0.0000   0.0065  -0.0056   0.0000
  15 C_a :2pz    0.0041  -0.0000  -0.0000  -0.0359  -0.0000   0.0000  -0.0036
  16 C_a :2px    0.0000   0.0353  -0.0399   0.0000  -0.0274  -0.0642   0.0000
  17 C_a :2py    0.0000   0.0324  -0.1074   0.0000  -0.0620   0.1649  -0.0000
  18 C_a :2pz   -0.4059   0.0000   0.0000  -0.1582   0.0000   0.0000  -0.0898
  19 C_a :2px    0.0000   0.0103  -0.0088   0.0000  -0.0153   0.0209  -0.0000
  20 C_a :2py   -0.0000  -0.0212   0.0112  -0.0000  -0.0137  -0.0087   0.0000
  21 C_a :2pz    0.0027  -0.0000   0.0000   0.0110   0.0000  -0.0000   0.0052
  28 C_a :3d1-   0.0014   0.0000   0.0000  -0.0081   0.0000   0.0000   0.0156
  30 C_a :3d1+  -0.0175  -0.0000   0.0000   0.0037   0.0000   0.0000  -0.0023
  31 C_a :3d2+  -0.0000   0.0128  -0.0057   0.0000   0.0008   0.0001   0.0000
  32 C_a :3d2-  -0.0000  -0.0259   0.0146  -0.0000   0.0114  -0.0173  -0.0000
  33 C_a :3d1-  -0.1078  -0.0000   0.0000   0.0474  -0.0000  -0.0000  -0.0203
  35 C_a :3d1+   0.0068   0.0000   0.0000  -0.0064   0.0000  -0.0000   0.0102
  36 C_a :3d2+  -0.0000  -0.0188  -0.0489  -0.0000   0.0269  -0.0151  -0.0000
  37 C_a :3d2-  -0.0000  -0.0214   0.0864  -0.0000  -0.0135   0.0393   0.0000
  38 C_a :3d1-   0.0482   0.0000  -0.0000   0.0169  -0.0000   0.0000   0.0029
  39 C_a :3d0   -0.0000  -0.0001   0.0320  -0.0000  -0.0211   0.0099   0.0000
  40 C_a :3d1+   0.0572  -0.0000  -0.0000   0.0206  -0.0000  -0.0000   0.0160
  41 C_a :3d2+  -0.0000   0.0192  -0.0233   0.0000  -0.0476  -0.0024  -0.0000
  56 C_a :4f3-   0.0000   0.0071   0.0176   0.0000  -0.0087   0.0040   0.0000
  57 C_a :4f2-   0.0311  -0.0000  -0.0000  -0.0005  -0.0000   0.0000   0.0058
  58 C_a :4f1-  -0.0000  -0.0089  -0.0115   0.0000   0.0004  -0.0039  -0.0000
  61 C_a :4f2+  -0.0050  -0.0000  -0.0000   0.0122  -0.0000   0.0000  -0.0044
  62 C_a :4f3+   0.0000  -0.0041   0.0052  -0.0000  -0.0046  -0.0120   0.0000
  64 C_b :1s     0.0000  -0.0342   0.0636  -0.0000   0.0102  -0.0014  -0.0000
  66 C_b :1s    -0.0000   0.0509  -0.2519  -0.0000   0.1010  -0.0444  -0.0000
  67 C_b :1s     0.0000  -0.0007  -0.1044   0.0000   0.0747  -0.1177  -0.0000
  68 C_b :1s     0.0000   0.0608  -0.0364  -0.0000   0.0682  -0.0331  -0.0000
  69 C_b :2px    0.0000  -0.3248   0.2299  -0.0000   0.0137  -0.0004   0.0000
  70 C_b :2py   -0.0000  -0.0280  -0.0792   0.0000  -0.0216   0.0029  -0.0000
  71 C_b :2pz    0.2766   0.0000   0.0000   0.0783   0.0000   0.0000  -0.1997
  75 C_b :2px   -0.0000  -0.0348  -0.0006   0.0000   0.0102  -0.0120  -0.0000
  76 C_b :2py    0.0000  -0.0066   0.0645   0.0000  -0.0573   0.0377   0.0000
  77 C_b :2pz   -0.0599  -0.0000  -0.0000   0.0299  -0.0000   0.0000  -0.0442
  78 C_b :2px   -0.0000  -0.0148  -0.0225  -0.0000  -0.1184   0.0767   0.0000
  79 C_b :2py   -0.0000   0.0160   0.0018  -0.0000  -0.0267   0.0345  -0.0000
  80 C_b :2pz    0.1193   0.0000   0.0000   0.0934   0.0000   0.0000   0.0216
  82 C_b :2py    0.0000   0.0329  -0.0181   0.0000  -0.0137   0.0059  -0.0000
  83 C_b :2pz   -0.0061   0.0000   0.0000   0.0094   0.0000  -0.0000   0.0106
  88 C_b :3d2+   0.0000   0.0120  -0.0073  -0.0000   0.0003  -0.0001  -0.0000
  92 C_b :3d1+   0.0106   0.0000   0.0000   0.0049   0.0000  -0.0000  -0.0088
  93 C_b :3d2+  -0.0000   0.0082  -0.0129   0.0000  -0.0018   0.0000   0.0000
  94 C_b :3d2-  -0.0000  -0.0574  -0.0323  -0.0000   0.0222  -0.0319   0.0000
  95 C_b :3d1-  -0.0642   0.0000   0.0000   0.0772   0.0000  -0.0000   0.0061
  96 C_b :3d0   -0.0000  -0.0196  -0.0391   0.0000   0.0136  -0.0023  -0.0000
  97 C_b :3d1+   0.0158  -0.0000  -0.0000   0.0205  -0.0000   0.0000  -0.0227
  98 C_b :3d2+  -0.0000  -0.0795  -0.0533   0.0000   0.0188   0.0130  -0.0000
  99 C_b :3d2-   0.0000  -0.0378  -0.0831   0.0000   0.0682  -0.1705  -0.0000
 100 C_b :3d1-   0.1247  -0.0000  -0.0000   0.0819  -0.0000  -0.0000   0.0334
 101 C_b :3d0    0.0000  -0.0034  -0.0314   0.0000   0.0311  -0.0173  -0.0000
 102 C_b :3d1+   0.0094   0.0000   0.0000   0.0120   0.0000  -0.0000   0.0093
 103 C_b :3d2+   0.0000  -0.0304  -0.0154   0.0000   0.0843  -0.0817   0.0000
 116 C_b :4f2+   0.0112  -0.0000   0.0000   0.0031  -0.0000  -0.0000  -0.0026
 118 C_b :4f3-   0.0000   0.0025   0.0141   0.0000  -0.0110  -0.0148   0.0000
 119 C_b :4f2-  -0.0215  -0.0000   0.0000   0.0221   0.0000  -0.0000   0.0030
 120 C_b :4f1-   0.0000  -0.0106   0.0025   0.0000  -0.0005   0.0023   0.0000
 121 C_b :4f0   -0.0218  -0.0000  -0.0000   0.0065  -0.0000   0.0000  -0.0037
 123 C_b :4f2+   0.0028  -0.0000  -0.0000   0.0243  -0.0000   0.0000  -0.0082
 124 C_b :4f3+   0.0000  -0.0062  -0.0177   0.0000  -0.0097  -0.0058  -0.0000
 126 C_c :1s    -0.0000  -0.0401   0.0633  -0.0000  -0.0115  -0.0000   0.0000
 128 C_c :1s    -0.0000   0.0094  -0.3905  -0.0000  -0.0334  -0.0145  -0.0000
 129 C_c :1s    -0.0000   0.0050  -0.1177  -0.0000  -0.0418   0.0704  -0.0000
 130 C_c :1s     0.0000   0.0077   0.0788   0.0000  -0.0361  -0.0658   0.0000
 131 C_c :2px   -0.0000   0.3079  -0.3163  -0.0000  -0.0101  -0.0001   0.0000
 132 C_c :2py    0.0000   0.0086  -0.0367  -0.0000   0.0332  -0.0028   0.0000
 133 C_c :2pz    0.1474   0.0000  -0.0000   0.2288  -0.0000   0.0000  -0.2844
 137 C_c :2px   -0.0000   0.1008  -0.0378  -0.0000   0.0204  -0.0265   0.0000
 138 C_c :2py    0.0000   0.0293   0.0838  -0.0000  -0.0069   0.0126   0.0000
 139 C_c :2pz   -0.0106   0.0000   0.0000   0.0398   0.0000  -0.0000  -0.0087
 140 C_c :2px   -0.0000   0.0509   0.0659  -0.0000  -0.1796   0.2345   0.0000
 141 C_c :2py   -0.0000  -0.0401  -0.0385  -0.0000  -0.0377  -0.0239   0.0000
 142 C_c :2pz    0.2034  -0.0000  -0.0000  -0.0092  -0.0000   0.0000  -0.0542
 143 C_c :2px   -0.0000  -0.0007   0.0106  -0.0000   0.0322  -0.0435   0.0000
 144 C_c :2py    0.0000   0.0049   0.0578  -0.0000   0.0396  -0.0034   0.0000
 145 C_c :2pz    0.0078   0.0000  -0.0000  -0.0303  -0.0000   0.0000  -0.0065
 146 C_c :3d2-   0.0000   0.0059  -0.0104   0.0000  -0.0015   0.0002  -0.0000
 150 C_c :3d2+  -0.0000   0.0107  -0.0125  -0.0000   0.0000   0.0000  -0.0000
 151 C_c :3d2-  -0.0000   0.0086  -0.0185  -0.0000  -0.0014  -0.0003  -0.0000
 152 C_c :3d1-   0.0006  -0.0000  -0.0000  -0.0109  -0.0000   0.0000   0.0083
 155 C_c :3d2+  -0.0000   0.0107  -0.0239  -0.0000  -0.0007  -0.0004  -0.0000
 156 C_c :3d2-  -0.0000  -0.0203  -0.0480  -0.0000   0.0684  -0.0362  -0.0000
 157 C_c :3d1-  -0.0285   0.0000   0.0000   0.0041   0.0000  -0.0000   0.0813
 158 C_c :3d0    0.0000  -0.0010  -0.0182   0.0000   0.0142  -0.0063   0.0000
 159 C_c :3d1+  -0.0301  -0.0000  -0.0000  -0.0510  -0.0000   0.0000  -0.0245
 160 C_c :3d2+   0.0000  -0.1081  -0.1105   0.0000  -0.0350   0.0142  -0.0000
 161 C_c :3d2-   0.0000   0.0109   0.0779  -0.0000   0.0183   0.1809   0.0000
 162 C_c :3d1-   0.0381  -0.0000  -0.0000   0.0130  -0.0000   0.0000   0.0108
 163 C_c :3d0   -0.0000   0.0048  -0.0027  -0.0000  -0.0340   0.0612  -0.0000
 164 C_c :3d1+  -0.0878   0.0000   0.0000  -0.0203   0.0000  -0.0000  -0.0247
 165 C_c :3d2+  -0.0000   0.0197  -0.0467  -0.0000  -0.1373  -0.0051  -0.0000
 180 C_c :4f3-   0.0000   0.0624   0.0486   0.0000  -0.0085   0.0141   0.0000
 181 C_c :4f2-   0.0234  -0.0000  -0.0000   0.0113  -0.0000   0.0000   0.0004
 185 C_c :4f2+   0.0187   0.0000   0.0000   0.0242   0.0000  -0.0000   0.0222
 186 C_c :4f3+  -0.0000  -0.0151  -0.0047  -0.0000   0.0165  -0.0132   0.0000
 188 C_d :1s     0.0000   0.0109   0.0615   0.0000   0.0184  -0.0067   0.0000
 190 C_d :1s    -0.0000  -0.0364  -0.3930   0.0000  -0.0275  -0.0578  -0.0000
 191 C_d :1s     0.0000   0.0484  -0.0840   0.0000   0.0404   0.0169  -0.0000
 192 C_d :1s     0.0000   0.1136   0.0889   0.0000   0.0096  -0.0199   0.0000
 193 C_d :2px    0.0000  -0.0461   0.4066   0.0000   0.0321  -0.0111  -0.0000
 194 C_d :2py   -0.0000  -0.1307   0.0086   0.0000  -0.0471   0.0099   0.0000
 195 C_d :2pz    0.0930  -0.0000  -0.0000   0.3163  -0.0000   0.0000  -0.2422
 199 C_d :2px   -0.0000  -0.0576   0.0419  -0.0000  -0.0130   0.0298  -0.0000
 200 C_d :2py   -0.0000   0.1215   0.1332  -0.0000   0.0508  -0.0102   0.0000
 201 C_d :2pz    0.0314   0.0000   0.0000  -0.0281   0.0000  -0.0000   0.0515
 202 C_d :2px   -0.0000  -0.0074  -0.0024  -0.0000  -0.0755   0.0863  -0.0000
 203 C_d :2py    0.0000   0.0029   0.0018   0.0000   0.0225   0.0966   0.0000
 204 C_d :2pz   -0.0294  -0.0000  -0.0000   0.0192  -0.0000   0.0000  -0.1874
 206 C_d :2py    0.0000  -0.0189   0.0561  -0.0000  -0.0332  -0.0117   0.0000
 207 C_d :2pz    0.0049  -0.0000   0.0000  -0.0084   0.0000   0.0000  -0.0174
 208 C_d :3d2-  -0.0000   0.0022  -0.0121  -0.0000  -0.0019   0.0005   0.0000
 212 C_d :3d2+   0.0000   0.0030  -0.0137   0.0000   0.0008   0.0003  -0.0000
 213 C_d :3d2-  -0.0000   0.0002  -0.0204  -0.0000  -0.0016  -0.0004   0.0000
 216 C_d :3d1+   0.0050  -0.0000  -0.0000   0.0137  -0.0000   0.0000  -0.0066
 217 C_d :3d2+  -0.0000   0.0019  -0.0228  -0.0000  -0.0008  -0.0009  -0.0000
 218 C_d :3d2-  -0.0000  -0.1404  -0.0239  -0.0000   0.1075  -0.0110  -0.0000
 219 C_d :3d1-  -0.0589   0.0000  -0.0000   0.0136  -0.0000   0.0000   0.0626
 220 C_d :3d0   -0.0000  -0.0005  -0.0410  -0.0000  -0.0190  -0.0104  -0.0000
 221 C_d :3d1+   0.0740   0.0000   0.0000   0.0206   0.0000  -0.0000   0.0094
 222 C_d :3d2+  -0.0000   0.0182  -0.0576  -0.0000   0.0157   0.0231  -0.0000
 223 C_d :3d2-   0.0000  -0.0241  -0.0551   0.0000   0.1085  -0.2443  -0.0000
 224 C_d :3d1-  -0.0232  -0.0000  -0.0000   0.0039  -0.0000  -0.0000   0.0272
 225 C_d :3d0   -0.0000  -0.0275  -0.0681   0.0000   0.0394  -0.1292  -0.0000
 226 C_d :3d1+   0.0203   0.0000  -0.0000  -0.0196  -0.0000   0.0000  -0.0310
 227 C_d :3d2+  -0.0000  -0.0329  -0.0510   0.0000   0.0415  -0.0187   0.0000
 242 C_d :4f3-  -0.0000   0.0131  -0.0150   0.0000   0.0175  -0.0025  -0.0000
 243 C_d :4f2-   0.0148   0.0000   0.0000   0.0000   0.0000  -0.0000   0.0335
 245 C_d :4f0    0.0025   0.0000   0.0000  -0.0101   0.0000  -0.0000   0.0204
 247 C_d :4f2+   0.0329   0.0000   0.0000   0.0086   0.0000  -0.0000   0.0234
 248 C_d :4f3+  -0.0000  -0.0352   0.0125  -0.0000   0.0710   0.0384  -0.0000
 250 C_e :1s     0.0000   0.0130   0.0926   0.0000  -0.0256  -0.0080   0.0000
 252 C_e :1s    -0.0000  -0.0896  -0.3469  -0.0000   0.1870  -0.0518  -0.0000
 253 C_e :1s    -0.0000  -0.0533  -0.1165  -0.0000  -0.0192   0.0127  -0.0000
 254 C_e :1s    -0.0000  -0.0643   0.0342  -0.0000  -0.0612   0.1749   0.0000
 255 C_e :2px    0.0000  -0.1657  -0.3727   0.0000  -0.0185   0.0227   0.0000
 256 C_e :2py    0.0000  -0.1531   0.0288   0.0000   0.0815   0.0095  -0.0000
 257 C_e :2pz    0.0494  -0.0000   0.0000   0.3736  -0.0000   0.0000  -0.0158
 261 C_e :2px    0.0000  -0.0816  -0.0569  -0.0000  -0.0460   0.1011  -0.0000
 262 C_e :2py    0.0000   0.0396  -0.1151   0.0000  -0.0099  -0.0792  -0.0000
 263 C_e :2pz   -0.0159   0.0000  -0.0000  -0.0270   0.0000  -0.0000   0.0313
 264 C_e :2px    0.0000   0.0210   0.0774   0.0000  -0.0142   0.0527   0.0000
 265 C_e :2py    0.0000   0.0197   0.0209   0.0000   0.0096   0.0048  -0.0000
 266 C_e :2pz   -0.0459  -0.0000   0.0000   0.1138  -0.0000   0.0000   0.0195
 267 C_e :2px    0.0000   0.0073  -0.0243   0.0000  -0.0172   0.0326  -0.0000
 268 C_e :2py   -0.0000  -0.0341  -0.0512   0.0000  -0.0397   0.0196  -0.0000
 269 C_e :2pz   -0.0138  -0.0000   0.0000   0.0411   0.0000  -0.0000  -0.0097
 270 C_e :3d2-  -0.0000  -0.0055  -0.0113  -0.0000  -0.0031   0.0012   0.0000
 274 C_e :3d2+   0.0000  -0.0074  -0.0123   0.0000   0.0008   0.0011   0.0000
 275 C_e :3d2-   0.0000  -0.0061  -0.0224   0.0000  -0.0028  -0.0011  -0.0000
 276 C_e :3d1-  -0.0007   0.0000   0.0000  -0.0082   0.0000  -0.0000  -0.0104
 278 C_e :3d1+  -0.0024   0.0000  -0.0000  -0.0141  -0.0000   0.0000   0.0044
 279 C_e :3d2+  -0.0000  -0.0090  -0.0231   0.0000   0.0022  -0.0000  -0.0000
 280 C_e :3d2-  -0.0000   0.0852  -0.0874   0.0000   0.0894  -0.0834  -0.0000
 281 C_e :3d1-  -0.0692  -0.0000   0.0000   0.0258  -0.0000   0.0000   0.0195
 282 C_e :3d0   -0.0000  -0.0227  -0.0315   0.0000   0.0444   0.0168  -0.0000
 283 C_e :3d1+  -0.0039   0.0000   0.0000  -0.0333   0.0000  -0.0000  -0.0122
 284 C_e :3d2+  -0.0000   0.0071  -0.0579  -0.0000   0.0277  -0.0146  -0.0000
 285 C_e :3d2-  -0.0000   0.0042  -0.0156  -0.0000   0.0855  -0.0169  -0.0000
 286 C_e :3d1-  -0.0152   0.0000  -0.0000   0.0426  -0.0000  -0.0000   0.1564
 287 C_e :3d0    0.0000   0.0082  -0.0266   0.0000   0.0333   0.0460  -0.0000
 288 C_e :3d1+   0.0418  -0.0000   0.0000  -0.0402   0.0000  -0.0000  -0.0372
 289 C_e :3d2+   0.0000  -0.0028  -0.0034   0.0000  -0.0007   0.1060  -0.0000
 304 C_e :4f3-   0.0000   0.0223   0.0161   0.0000   0.0113   0.0361  -0.0000
 305 C_e :4f2-   0.0197   0.0000  -0.0000  -0.0052   0.0000  -0.0000   0.0111
 306 C_e :4f1-  -0.0000  -0.0102   0.0006   0.0000  -0.0002  -0.0217   0.0000
 307 C_e :4f0    0.0006   0.0000  -0.0000  -0.0157   0.0000  -0.0000   0.0070
 308 C_e :4f1+   0.0000   0.0071   0.0060   0.0000  -0.0078   0.0111   0.0000
 309 C_e :4f2+   0.0101  -0.0000  -0.0000   0.0037  -0.0000   0.0000   0.0082
 310 C_e :4f3+   0.0000  -0.0630   0.0023  -0.0000   0.0509   0.0098  -0.0000
 312 C_f :1s    -0.0000   0.0290   0.0272  -0.0000   0.0360  -0.0082   0.0000
 314 C_f :1s    -0.0000  -0.1017  -0.3742  -0.0000   0.0711  -0.0962  -0.0000
 315 C_f :1s    -0.0000  -0.0123  -0.1372  -0.0000   0.0358   0.1021  -0.0000
 316 C_f :1s    -0.0000  -0.0234  -0.0005  -0.0000   0.0228   0.0772  -0.0000
 317 C_f :2px    0.0000   0.3627   0.2297   0.0000   0.0496  -0.0594   0.0000
 318 C_f :2py   -0.0000   0.0784   0.0507  -0.0000  -0.1047   0.0023   0.0000
 319 C_f :2pz    0.0323  -0.0000   0.0000   0.3834   0.0000  -0.0000   0.1410
 323 C_f :2px    0.0000   0.0518   0.0138   0.0000  -0.0521  -0.0956  -0.0000
 324 C_f :2py    0.0000   0.0242  -0.0694   0.0000  -0.1187   0.0151  -0.0000
 325 C_f :2pz    0.0039  -0.0000  -0.0000   0.0285  -0.0000   0.0000  -0.0353
 326 C_f :2px    0.0000  -0.0256   0.0015   0.0000   0.0860  -0.2032  -0.0000
 327 C_f :2py   -0.0000  -0.0241  -0.0071  -0.0000  -0.0686  -0.1583   0.0000
 328 C_f :2pz    0.0220  -0.0000   0.0000   0.1721   0.0000  -0.0000   0.0700
 329 C_f :2px   -0.0000   0.0060   0.0049  -0.0000   0.0360  -0.0048   0.0000
 330 C_f :2py   -0.0000  -0.0162  -0.0626  -0.0000   0.0522   0.0024  -0.0000
 331 C_f :2pz   -0.0017   0.0000  -0.0000  -0.0043  -0.0000  -0.0000   0.0252
 336 C_f :3d2+  -0.0000  -0.0121  -0.0085  -0.0000   0.0027   0.0018   0.0000
 337 C_f :3d2-   0.0000  -0.0114  -0.0169   0.0000  -0.0014   0.0012  -0.0000
 340 C_f :3d1+   0.0015  -0.0000   0.0000   0.0149   0.0000  -0.0000   0.0060
 341 C_f :3d2+   0.0000  -0.0120  -0.0188   0.0000   0.0045  -0.0001  -0.0000
 342 C_f :3d2-  -0.0000   0.0194  -0.0615   0.0000   0.0506  -0.0475  -0.0000
 343 C_f :3d1-  -0.0286  -0.0000   0.0000   0.0396   0.0000   0.0000   0.0282
 344 C_f :3d0    0.0000   0.0058  -0.0219   0.0000   0.0221  -0.0412  -0.0000
 345 C_f :3d1+   0.0298   0.0000  -0.0000   0.0393  -0.0000   0.0000  -0.0381
 346 C_f :3d2+   0.0000   0.0891  -0.1113   0.0000  -0.0772  -0.0100  -0.0000
 347 C_f :3d2-   0.0000  -0.0310  -0.0117   0.0000   0.1171  -0.0286   0.0000
 348 C_f :3d1-   0.0712   0.0000   0.0000  -0.0879   0.0000  -0.0000   0.0433
 349 C_f :3d0   -0.0000   0.0178  -0.0068  -0.0000  -0.0759   0.0733  -0.0000
 350 C_f :3d1+  -0.0028  -0.0000   0.0000   0.0925   0.0000   0.0000  -0.0209
 351 C_f :3d2+  -0.0000   0.0213  -0.0526  -0.0000  -0.0766   0.1480  -0.0000
 366 C_f :4f3-   0.0000   0.0166  -0.0509   0.0000  -0.0411  -0.0543  -0.0000
 367 C_f :4f2-   0.0039  -0.0000   0.0000   0.0134   0.0000   0.0000  -0.0063
 368 C_f :4f1-   0.0000  -0.0025  -0.0060   0.0000  -0.0427  -0.0051  -0.0000
 370 C_f :4f1+  -0.0000   0.0005  -0.0068   0.0000   0.0061  -0.0119  -0.0000
 371 C_f :4f2+   0.0162  -0.0000   0.0000   0.0181   0.0000   0.0000  -0.0292
 372 C_f :4f3+   0.0000  -0.0116   0.0165   0.0000   0.0095   0.0458  -0.0000
 374 C_g :1s     0.0000   0.0568   0.0687   0.0000  -0.0314   0.0500  -0.0000
 376 C_g :1s     0.0000  -0.0773  -0.1800   0.0000  -0.1117   0.1880  -0.0000
 377 C_g :1s     0.0000  -0.0153  -0.0887  -0.0000   0.0568   0.0290  -0.0000
 378 C_g :1s    -0.0000  -0.0663   0.0131  -0.0000  -0.0220  -0.0815  -0.0000
 379 C_g :2px   -0.0000  -0.3265  -0.1605  -0.0000  -0.0229   0.0732   0.0000
 380 C_g :2py   -0.0000  -0.0328   0.0533  -0.0000   0.1566  -0.0386  -0.0000
 381 C_g :2pz    0.0160   0.0000   0.0000   0.2961   0.0000  -0.0000   0.2673
 385 C_g :2px    0.0000  -0.0519   0.0465   0.0000  -0.1591  -0.0184   0.0000
 386 C_g :2py   -0.0000  -0.0723  -0.0979  -0.0000   0.1166   0.0038   0.0000
 387 C_g :2pz    0.0045  -0.0000   0.0000   0.0133   0.0000   0.0000  -0.0044
 388 C_g :2px    0.0000  -0.0025   0.0284  -0.0000   0.0622  -0.0773   0.0000
 389 C_g :2py   -0.0000   0.0440   0.0151   0.0000  -0.0610  -0.0088  -0.0000
 390 C_g :2pz    0.0942   0.0000   0.0000   0.0745   0.0000  -0.0000   0.2256
 391 C_g :2px   -0.0000  -0.0125  -0.0137  -0.0000  -0.0146   0.0699   0.0000
 392 C_g :2py    0.0000   0.0421   0.0986   0.0000   0.0102  -0.1432   0.0000
 393 C_g :2pz    0.0095   0.0000  -0.0000  -0.0257  -0.0000   0.0000   0.0186
 398 C_g :3d2+  -0.0000  -0.0108  -0.0038   0.0000   0.0017  -0.0007  -0.0000
 402 C_g :3d1+  -0.0010  -0.0000   0.0000  -0.0132   0.0000  -0.0000  -0.0070
 403 C_g :3d2+   0.0000  -0.0109  -0.0116   0.0000   0.0073   0.0006  -0.0000
 404 C_g :3d2-  -0.0000   0.0233  -0.0680  -0.0000   0.1823   0.0038  -0.0000
 405 C_g :3d1-  -0.0447  -0.0000   0.0000  -0.0462  -0.0000  -0.0000   0.0709
 406 C_g :3d0    0.0000  -0.0016  -0.0328  -0.0000  -0.0296   0.0124  -0.0000
 407 C_g :3d1+  -0.0027   0.0000  -0.0000  -0.0355  -0.0000  -0.0000  -0.0298
 408 C_g :3d2+  -0.0000   0.0617  -0.0853   0.0000  -0.0808  -0.0860  -0.0000
 409 C_g :3d2-  -0.0000   0.0141  -0.0724  -0.0000  -0.0846  -0.0899  -0.0000
 410 C_g :3d1-  -0.0822   0.0000  -0.0000  -0.1173  -0.0000   0.0000   0.0277
 411 C_g :3d0   -0.0000  -0.0070  -0.0458   0.0000  -0.0093  -0.0723  -0.0000
 412 C_g :3d1+  -0.0213  -0.0000   0.0000   0.0409   0.0000   0.0000  -0.0260
 413 C_g :3d2+   0.0000  -0.0302  -0.0222   0.0000   0.1481  -0.0456   0.0000
 427 C_g :4f3+   0.0000  -0.0029   0.0008   0.0000   0.0092   0.0118  -0.0000
 428 C_g :4f3-   0.0000   0.0027   0.0047   0.0000  -0.1074   0.0939  -0.0000
 429 C_g :4f2-   0.0178   0.0000   0.0000   0.0164   0.0000  -0.0000  -0.0067
 430 C_g :4f1-  -0.0000  -0.0127  -0.0026  -0.0000   0.0034   0.0038  -0.0000
 433 C_g :4f2+   0.0055  -0.0000   0.0000   0.0181   0.0000  -0.0000  -0.0278
 434 C_g :4f3+  -0.0000  -0.0058   0.0399  -0.0000   0.0653   0.0287   0.0000
 436 C_h :1s     0.0000   0.0105  -0.0148   0.0000   0.1050   0.0121   0.0000
 438 C_h :1s     0.0000  -0.0475  -0.2301  -0.0000   0.3134  -0.1915  -0.0000
 439 C_h :1s    -0.0000   0.0076  -0.0039  -0.0000  -0.0941   0.1035  -0.0000
 440 C_h :1s    -0.0000   0.0150   0.0137   0.0000  -0.0661  -0.0977  -0.0000
 441 C_h :2px   -0.0000   0.1041   0.0145  -0.0000   0.2115   0.1504   0.0000
 442 C_h :2py   -0.0000   0.1245   0.0256   0.0000  -0.2373   0.0047  -0.0000
 443 C_h :2pz    0.0088   0.0000  -0.0000   0.2191  -0.0000  -0.0000   0.2572
 444 C_h :2px   -0.0000  -0.0046  -0.0030   0.0000  -0.0102   0.0016   0.0000
 445 C_h :2py   -0.0000  -0.0039  -0.0009  -0.0000   0.0182  -0.0001  -0.0000
 447 C_h :2px   -0.0000   0.0614  -0.0050  -0.0000   0.1927  -0.0509   0.0000
 448 C_h :2py   -0.0000  -0.0526  -0.0171  -0.0000   0.1356   0.0742  -0.0000
 449 C_h :2pz   -0.0272  -0.0000   0.0000  -0.0367   0.0000  -0.0000   0.0340
 450 C_h :2px   -0.0000  -0.0239  -0.0389  -0.0000   0.2466  -0.2922   0.0000
 451 C_h :2py    0.0000   0.0260   0.1117   0.0000   0.1211  -0.0941   0.0000
 452 C_h :2pz   -0.1240   0.0000  -0.0000  -0.3220  -0.0000  -0.0000  -0.0988
 453 C_h :2px    0.0000   0.0070   0.0263   0.0000  -0.0250  -0.0513  -0.0000
 454 C_h :2py   -0.0000  -0.0216  -0.0455  -0.0000  -0.0222   0.1429  -0.0000
 455 C_h :2pz   -0.0008  -0.0000   0.0000   0.0162   0.0000  -0.0000  -0.0274
 456 C_h :3d2-  -0.0000  -0.0059  -0.0027  -0.0000  -0.0109  -0.0031  -0.0000
 462 C_h :3d1-   0.0004   0.0000  -0.0000   0.0123  -0.0000   0.0000   0.0136
 465 C_h :3d2+  -0.0000  -0.0065  -0.0014  -0.0000   0.0016   0.0224   0.0000
 466 C_h :3d2-  -0.0000   0.0045  -0.0473  -0.0000   0.0884  -0.0497  -0.0000
 467 C_h :3d1-  -0.0226   0.0000  -0.0000  -0.0191  -0.0000   0.0000   0.0149
 468 C_h :3d0   -0.0000  -0.0081  -0.0095  -0.0000   0.0668  -0.0049  -0.0000
 469 C_h :3d1+   0.0039  -0.0000   0.0000   0.0195   0.0000  -0.0000   0.0047
 470 C_h :3d2+  -0.0000  -0.0090  -0.0385  -0.0000   0.0487   0.0968  -0.0000
 471 C_h :3d2-   0.0000   0.0075   0.0252  -0.0000   0.1192   0.0950   0.0000
 472 C_h :3d1-   0.0047  -0.0000  -0.0000  -0.0519   0.0000  -0.0000   0.0260
 473 C_h :3d0   -0.0000  -0.0003   0.0191  -0.0000   0.0465   0.0866   0.0000
 474 C_h :3d1+  -0.0206  -0.0000  -0.0000  -0.0595  -0.0000   0.0000   0.0156
 475 C_h :3d2+  -0.0000   0.0397   0.0127  -0.0000  -0.1971   0.0960  -0.0000
 489 C_h :4f3+  -0.0000  -0.0049   0.0015  -0.0000  -0.0083   0.0165   0.0000
 490 C_h :4f3-  -0.0000  -0.0054  -0.0123  -0.0000  -0.0093   0.0376  -0.0000
 491 C_h :4f2-   0.0055   0.0000  -0.0000   0.0079  -0.0000  -0.0000   0.0131
 492 C_h :4f1-   0.0000  -0.0015   0.0082   0.0000  -0.0158  -0.0003   0.0000
 494 C_h :4f1+  -0.0000  -0.0024  -0.0026  -0.0000   0.0308   0.0012  -0.0000
 495 C_h :4f2+   0.0057   0.0000   0.0000   0.0114   0.0000   0.0000   0.0042
 496 C_h :4f3+   0.0000   0.0002   0.0298  -0.0000  -0.0803   0.0726   0.0000
 498 N_a :1s    -0.0000  -0.0293   0.0216   0.0000   0.0034  -0.0002   0.0000
 501 N_a :1s     0.0000   0.0107   0.1597  -0.0000   0.0092  -0.0181   0.0000
 502 N_a :1s    -0.0000  -0.0182   0.0137  -0.0000   0.0165   0.0520   0.0000
 503 N_a :2px   -0.0000  -0.0598   0.0206   0.0000   0.0017  -0.0001  -0.0000
 504 N_a :2py   -0.0000   0.0224  -0.0338  -0.0000  -0.0070   0.0008  -0.0000
 505 N_a :2pz    0.6345  -0.0000  -0.0000  -0.2018  -0.0000  -0.0000   0.2303
 510 N_a :2py    0.0000  -0.0108   0.0014   0.0000   0.0074  -0.0028   0.0000
 511 N_a :2pz    0.0472   0.0000   0.0000  -0.0091   0.0000   0.0000   0.0203
 512 N_a :2px    0.0000   0.0307   0.0653   0.0000   0.0018   0.0223   0.0000
 513 N_a :2py   -0.0000  -0.0452   0.0222  -0.0000   0.0355  -0.0852   0.0000
 514 N_a :2pz    0.1686  -0.0000  -0.0000   0.0075  -0.0000  -0.0000   0.0359
 515 N_a :2px    0.0000  -0.0022   0.0098   0.0000   0.0161  -0.0100   0.0000
 516 N_a :2py    0.0000   0.0096  -0.0022   0.0000   0.0117  -0.0001  -0.0000
 524 N_a :3d1-  -0.0131   0.0000   0.0000   0.0026   0.0000   0.0000  -0.0015
 526 N_a :3d1+   0.0103  -0.0000  -0.0000  -0.0020  -0.0000  -0.0000   0.0013
 531 N_a :3d1+   0.0158  -0.0000   0.0000   0.0006   0.0000  -0.0000   0.0008
 533 N_a :3d2-  -0.0000  -0.0159  -0.0209   0.0000   0.0065  -0.0291  -0.0000
 534 N_a :3d1-  -0.0518   0.0000  -0.0000   0.0017   0.0000   0.0000  -0.0053
 535 N_a :3d0   -0.0000  -0.0136  -0.0043   0.0000   0.0147  -0.0216   0.0000
 536 N_a :3d1+   0.0362  -0.0000   0.0000   0.0047  -0.0000  -0.0000   0.0026
 537 N_a :3d2+   0.0000  -0.0111  -0.0081   0.0000   0.0163  -0.0287   0.0000
 557 N_a :4f2+   0.0112   0.0000   0.0000  -0.0017   0.0000   0.0000   0.0007
 560 N_b :1s    -0.0000   0.0204   0.0118  -0.0000   0.0259   0.0065  -0.0000
 562 N_b :1s    -0.0000  -0.0070  -0.0123  -0.0000   0.2042   0.0567  -0.0000
 563 N_b :1s    -0.0000   0.0299   0.0535  -0.0000  -0.1185   0.0592   0.0000
 564 N_b :1s     0.0000   0.0104  -0.0865   0.0000   0.2253  -0.0649  -0.0000
 565 N_b :2px    0.0000  -0.0531  -0.0097   0.0000  -0.2191   0.0031  -0.0000
 566 N_b :2py   -0.0000   0.0313   0.0192  -0.0000   0.1720   0.1198   0.0000
 567 N_b :2pz   -0.0029  -0.0000  -0.0000  -0.0402  -0.0000   0.0000  -0.0309
 571 N_b :2px    0.0000   0.0212  -0.0039   0.0000   0.0227  -0.0751   0.0000
 572 N_b :2py   -0.0000  -0.0123   0.0002   0.0000   0.0060  -0.0461  -0.0000
 573 N_b :2pz    0.0031  -0.0000   0.0000   0.0181   0.0000  -0.0000   0.0103
 574 N_b :2px   -0.0000  -0.0381  -0.0530  -0.0000   0.1596   0.1471  -0.0000
 575 N_b :2py    0.0000   0.0081  -0.0418   0.0000  -0.2861  -0.1175  -0.0000
 576 N_b :2pz    0.0463   0.0000  -0.0000   0.1580  -0.0000   0.0000   0.0802
 577 N_b :2px   -0.0000   0.0083   0.0082  -0.0000   0.0236  -0.0083   0.0000
 578 N_b :2py    0.0000   0.0053  -0.0076   0.0000   0.0063  -0.1071  -0.0000
 579 N_b :2pz   -0.0084  -0.0000   0.0000  -0.0141   0.0000  -0.0000   0.0075
 580 N_b :3d2-   0.0000   0.0001   0.0010   0.0000  -0.0227  -0.0060   0.0000
 581 N_b :3d1-   0.0001  -0.0000   0.0000   0.0025   0.0000  -0.0000   0.0119
 584 N_b :3d2+   0.0000  -0.0006   0.0009   0.0000  -0.0029   0.0154  -0.0000
 585 N_b :3d2-   0.0000  -0.0018   0.0012   0.0000  -0.0585  -0.0155   0.0000
 586 N_b :3d1-   0.0003   0.0000  -0.0000   0.0069  -0.0000   0.0000   0.0327
 588 N_b :3d1+  -0.0004   0.0000   0.0000  -0.0062   0.0000   0.0000   0.0156
 589 N_b :3d2+  -0.0000  -0.0013   0.0025  -0.0000  -0.0051   0.0334   0.0000
 590 N_b :3d2-  -0.0000  -0.0066  -0.0143  -0.0000   0.1139   0.0043   0.0000
 591 N_b :3d1-  -0.0001   0.0000  -0.0000  -0.0055  -0.0000   0.0000  -0.0331
 593 N_b :3d1+  -0.0012  -0.0000   0.0000  -0.0082   0.0000   0.0000  -0.0248
 594 N_b :3d2+  -0.0000  -0.0095  -0.0084   0.0000   0.0398  -0.0965   0.0000
 595 N_b :3d2-   0.0000  -0.0007  -0.0057   0.0000  -0.0070  -0.0706  -0.0000
 596 N_b :3d1-  -0.0100  -0.0000  -0.0000   0.0093  -0.0000  -0.0000  -0.0957
 597 N_b :3d0    0.0000   0.0004  -0.0033  -0.0000   0.0374  -0.0103   0.0000
 598 N_b :3d1+  -0.0067  -0.0000  -0.0000  -0.0114  -0.0000  -0.0000  -0.0904
 599 N_b :3d2+   0.0000  -0.0228  -0.0585   0.0000   0.1707  -0.4429  -0.0000
 607 N_b :4f3-   0.0000   0.0028   0.0026  -0.0000   0.0054   0.0145   0.0000
 613 N_b :4f3+   0.0000   0.0008  -0.0008   0.0000   0.0110  -0.0165  -0.0000
 614 N_b :4f3-  -0.0000   0.0051   0.0097  -0.0000  -0.0718   0.0168   0.0000
 616 N_b :4f1-   0.0000   0.0026   0.0007  -0.0000  -0.0172  -0.0203   0.0000
 618 N_b :4f1+  -0.0000  -0.0004  -0.0038  -0.0000   0.0267  -0.0063  -0.0000
 619 N_b :4f2+   0.0004   0.0000  -0.0000   0.0018  -0.0000   0.0000  -0.0186
 620 N_b :4f3+  -0.0000  -0.0007  -0.0016  -0.0000  -0.0392  -0.0661   0.0000
 622 O_a :1s    -0.0000   0.0229   0.0070  -0.0000   0.0107   0.0032  -0.0000
 624 O_a :1s     0.0000   0.0062   0.0018   0.0000  -0.0218   0.0565   0.0000
 625 O_a :1s     0.0000   0.0058   0.0078   0.0000   0.0425   0.2954   0.0000
 626 O_a :1s    -0.0000  -0.0115   0.0414  -0.0000   0.0132  -0.0052   0.0000
 627 O_a :2px    0.0000   0.0348  -0.0057   0.0000   0.3467   0.1798   0.0000
 628 O_a :2py   -0.0000   0.0046  -0.0104  -0.0000  -0.2563  -0.7800  -0.0000
 629 O_a :2pz   -0.0035  -0.0000   0.0000  -0.0673   0.0000   0.0000   0.3202
 633 O_a :2px   -0.0000   0.0014  -0.0012  -0.0000   0.0558   0.0365  -0.0000
 634 O_a :2py    0.0000  -0.0001  -0.0054   0.0000  -0.0298  -0.1561   0.0000
 635 O_a :2pz    0.0001   0.0000  -0.0000  -0.0062  -0.0000  -0.0000   0.0493
 636 O_a :2px   -0.0000   0.0104   0.0327  -0.0000  -0.0824   0.2349   0.0000
 637 O_a :2py   -0.0000  -0.0487  -0.0768  -0.0000   0.2134  -0.3093  -0.0000
 638 O_a :2pz   -0.0122  -0.0000   0.0000  -0.0512   0.0000   0.0000   0.1620
 640 O_a :2py   -0.0000   0.0005   0.0048  -0.0000   0.0245  -0.0155   0.0000
 647 O_a :3d2-   0.0000  -0.0012   0.0005   0.0000  -0.0042   0.0183   0.0000
 651 O_a :3d2+  -0.0000   0.0004   0.0009   0.0000  -0.0107  -0.0078   0.0000
 652 O_a :3d2-  -0.0000  -0.0005   0.0023  -0.0000   0.0045   0.0436   0.0000
 654 O_a :3d0   -0.0000  -0.0001   0.0004  -0.0000   0.0008   0.0106  -0.0000
 655 O_a :3d1+   0.0004  -0.0000   0.0000   0.0026   0.0000   0.0000  -0.0142
 656 O_a :3d2+   0.0000  -0.0004  -0.0009   0.0000  -0.0025  -0.0252   0.0000
 657 O_a :3d2-   0.0000   0.0043   0.0077   0.0000  -0.0355   0.0296   0.0000
 659 O_a :3d0    0.0000   0.0032   0.0076  -0.0000  -0.0160   0.0358   0.0000
 660 O_a :3d1+   0.0034   0.0000  -0.0000   0.0126  -0.0000  -0.0000  -0.0260
 661 O_a :3d2+   0.0000   0.0020  -0.0009   0.0000   0.0197  -0.0374   0.0000
 686 O_b :1s     0.0000  -0.0090  -0.0023   0.0000   0.0090  -0.0255  -0.0000
 687 O_b :1s     0.0000  -0.0380  -0.0538   0.0000   0.1753  -0.1967   0.0000
 688 O_b :1s    -0.0000   0.0158   0.0483  -0.0000  -0.0457   0.0258   0.0000
 689 O_b :2px    0.0000  -0.0585  -0.0783   0.0000   0.6555  -0.5182  -0.0000
 690 O_b :2py   -0.0000   0.0128   0.0123   0.0000  -0.3636  -0.0652  -0.0000
 691 O_b :2pz   -0.0040  -0.0000   0.0000  -0.0859   0.0000  -0.0000  -0.4875
 695 O_b :2px   -0.0000  -0.0113  -0.0153  -0.0000   0.1121  -0.1115   0.0000
 696 O_b :2py    0.0000   0.0017   0.0061   0.0000  -0.0675   0.0062   0.0000
 697 O_b :2pz   -0.0003   0.0000  -0.0000  -0.0130  -0.0000   0.0000  -0.0707
 698 O_b :2px    0.0000  -0.0090  -0.0519   0.0000   0.0032  -0.4859  -0.0000
 699 O_b :2py   -0.0000   0.0011   0.0376  -0.0000  -0.0721   0.2929  -0.0000
 700 O_b :2pz   -0.0225  -0.0000   0.0000  -0.0510   0.0000  -0.0000  -0.2279
 701 O_b :2px    0.0000  -0.0026  -0.0016   0.0000   0.0003  -0.0325  -0.0000
 702 O_b :2py   -0.0000   0.0029   0.0120  -0.0000  -0.0028   0.0188   0.0000
 709 O_b :3d2-  -0.0000  -0.0017  -0.0022   0.0000   0.0067  -0.0174  -0.0000
 710 O_b :3d1-  -0.0001   0.0000   0.0000  -0.0029   0.0000  -0.0000  -0.0135
 713 O_b :3d2+   0.0000  -0.0018  -0.0012   0.0000   0.0125   0.0010  -0.0000
 714 O_b :3d2-  -0.0000  -0.0022  -0.0033   0.0000   0.0273  -0.0348  -0.0000
 715 O_b :3d1-  -0.0007   0.0000  -0.0000  -0.0055  -0.0000   0.0000  -0.0213
 718 O_b :3d2+  -0.0000  -0.0031  -0.0036  -0.0000   0.0188  -0.0227  -0.0000
 719 O_b :3d2-   0.0000   0.0004  -0.0051   0.0000  -0.0217  -0.0666  -0.0000
 720 O_b :3d1-  -0.0044  -0.0000  -0.0000  -0.0107  -0.0000  -0.0000  -0.0367
 721 O_b :3d0    0.0000  -0.0002  -0.0044   0.0000   0.0027  -0.0351  -0.0000
 723 O_b :3d2+   0.0000  -0.0013  -0.0067   0.0000   0.0103  -0.0639  -0.0000
 745 H_a :1s    -0.0000   0.1987  -0.0790   0.0000  -0.0016  -0.0004  -0.0000
 746 H_a :1s     0.0000  -0.0442   0.0172  -0.0000   0.0032  -0.0008   0.0000
 747 H_a :1s     0.0000  -0.1005   0.0477  -0.0000   0.0298   0.0329   0.0000
 748 H_a :1s    -0.0000   0.0077  -0.1052   0.0000  -0.0513   0.0152  -0.0000
 749 H_a :1s    -0.0000  -0.0216   0.0232   0.0000   0.0063  -0.0213   0.0000
 756 H_a :2px   -0.0000   0.0188   0.0007   0.0000   0.0042   0.0095   0.0000
 757 H_a :2py   -0.0000  -0.0067  -0.0394  -0.0000  -0.0104  -0.0196  -0.0000
 758 H_a :2pz   -0.0105   0.0000  -0.0000  -0.0246  -0.0000   0.0000   0.0021
 759 H_a :2px    0.0000  -0.0076   0.0360  -0.0000  -0.0223   0.0308   0.0000
 760 H_a :2py   -0.0000   0.0134  -0.0230   0.0000   0.0551  -0.0626  -0.0000
 761 H_a :2pz   -0.0468  -0.0000   0.0000  -0.0197   0.0000   0.0000  -0.0047
 772 H_a :3d2-   0.0000  -0.0061   0.0111  -0.0000   0.0063   0.0066   0.0000
 777 H_b :1s     0.0000   0.3679  -0.2274   0.0000  -0.0043  -0.0011  -0.0000
 778 H_b :1s    -0.0000  -0.0655   0.0502   0.0000  -0.0010   0.0026   0.0000
 779 H_b :1s    -0.0000  -0.0334   0.1488   0.0000  -0.0793  -0.0272   0.0000
 780 H_b :1s    -0.0000   0.0137  -0.0429  -0.0000  -0.0178   0.0784  -0.0000
 781 H_b :1s     0.0000   0.0042  -0.0510   0.0000   0.0095  -0.0364  -0.0000
 788 H_b :2px    0.0000  -0.0011   0.0304   0.0000   0.0015  -0.0063   0.0000
 789 H_b :2py    0.0000  -0.0202  -0.0137   0.0000   0.0261  -0.0010  -0.0000
 790 H_b :2pz   -0.0269   0.0000  -0.0000  -0.0215  -0.0000  -0.0000  -0.0039
 791 H_b :2px   -0.0000  -0.0032   0.0138  -0.0000   0.0297  -0.0028  -0.0000
 792 H_b :2py    0.0000  -0.0287  -0.1267   0.0000   0.0264  -0.0606  -0.0000
 793 H_b :2pz    0.0128  -0.0000  -0.0000   0.0007  -0.0000  -0.0000   0.0099
 804 H_b :3d2-   0.0000  -0.0020  -0.0199  -0.0000   0.0047  -0.0113  -0.0000
 805 H_b :3d1-  -0.0133  -0.0000   0.0000  -0.0045   0.0000  -0.0000   0.0008
 806 H_b :3d0   -0.0000   0.0063  -0.0117  -0.0000  -0.0175   0.0160  -0.0000
 808 H_b :3d2+  -0.0000   0.0084  -0.0085   0.0000  -0.0242   0.0282  -0.0000
 809 H_c :1s    -0.0000   0.0645  -0.0155   0.0000   0.0006  -0.0003  -0.0000
 811 H_c :1s     0.0000  -0.0354  -0.0030  -0.0000  -0.0098   0.0045   0.0000
 812 H_c :1s     0.0000  -0.0620   0.1878  -0.0000   0.0453  -0.1242   0.0000
 813 H_c :1s     0.0000  -0.0109   0.0244  -0.0000  -0.0007   0.0074   0.0000
 819 H_c :2pz    0.0197  -0.0000  -0.0000  -0.0070  -0.0000  -0.0000   0.0081
 820 H_c :2px   -0.0000  -0.0103   0.0006  -0.0000   0.0002  -0.0028  -0.0000
 821 H_c :2py    0.0000   0.0015  -0.0023  -0.0000   0.0106  -0.0011  -0.0000
 822 H_c :2pz    0.0066  -0.0000  -0.0000  -0.0070  -0.0000  -0.0000   0.0107
 823 H_c :2px    0.0000  -0.0132   0.0211   0.0000   0.0013  -0.0234   0.0000
 824 H_c :2py   -0.0000  -0.0054  -0.0316   0.0000  -0.0113   0.0052   0.0000
 825 H_c :2pz    0.0113   0.0000   0.0000   0.0033   0.0000  -0.0000   0.0046
 841 H_d :1s     0.0000  -0.0237  -0.0149  -0.0000  -0.0057   0.0007   0.0000
 842 H_d :1s    -0.0000   0.0102  -0.0048   0.0000   0.0005   0.0023  -0.0000
 843 H_d :1s    -0.0000  -0.0025  -0.0428   0.0000   0.0137   0.0028  -0.0000
 844 H_d :1s    -0.0000   0.0671   0.0584   0.0000  -0.0848   0.0253   0.0000
 845 H_d :1s    -0.0000   0.0130  -0.0164   0.0000  -0.0020   0.0068  -0.0000
 851 H_d :2pz    0.0209  -0.0000  -0.0000  -0.0073  -0.0000  -0.0000   0.0086
 854 H_d :2pz    0.0319  -0.0000  -0.0000  -0.0107  -0.0000  -0.0000   0.0101
 855 H_d :2px   -0.0000  -0.0029  -0.0016   0.0000  -0.0140   0.0006   0.0000
 856 H_d :2py   -0.0000  -0.0128  -0.0103  -0.0000   0.0058  -0.0032  -0.0000
 871 H_d :3d1+  -0.0125   0.0000  -0.0000   0.0006   0.0000   0.0000  -0.0012
 873 H_e :1s    -0.0000   0.3313  -0.3696   0.0000  -0.0117   0.0007  -0.0000
 874 H_e :1s     0.0000  -0.0660   0.0859   0.0000   0.0025   0.0011   0.0000
 875 H_e :1s     0.0000  -0.0767   0.3198  -0.0000   0.0242   0.0509   0.0000
 876 H_e :1s     0.0000   0.0047   0.1185   0.0000   0.0497  -0.0376   0.0000
[...]

@ Singlet linear response function in a.u.

@ A operator, symmetry, frequency:   XDIPLEN    1 -0.017481
@ B operator, symmetry, frequency:   ZDIPLEN    1  0.017481

@ Value of linear response -<<A;B>>(omega):      -0.000000000000

@ Singlet linear response function in a.u.

@ A operator, symmetry, frequency:   YDIPLEN    1 -0.017481
@ B operator, symmetry, frequency:   ZDIPLEN    1  0.017481

@ Value of linear response -<<A;B>>(omega):      -0.000000000000

@ Singlet linear response function in a.u.

@ A operator, symmetry, frequency:   ZDIPLEN    1 -0.017481
@ B operator, symmetry, frequency:   ZDIPLEN    1  0.017481

@ Value of linear response -<<A;B>>(omega):      75.838202166716

@ Singlet linear response function in a.u.

@ A operator, symmetry, frequency:   XDIPLEN    1 -0.034963
@ B operator, symmetry, frequency:   ZDIPLEN    1  0.034963

@ Value of linear response -<<A;B>>(omega):      -0.000000000000

@ Singlet linear response function in a.u.

@ A operator, symmetry, frequency:   YDIPLEN    1 -0.034963
@ B operator, symmetry, frequency:   ZDIPLEN    1  0.034963

@ Value of linear response -<<A;B>>(omega):      -0.000000000000

@ Singlet linear response function in a.u.

@ A operator, symmetry, frequency:   ZDIPLEN    1 -0.034963
@ B operator, symmetry, frequency:   ZDIPLEN    1  0.034963

@ Value of linear response -<<A;B>>(omega):      76.079624951540


  Results from quadratic response calculation
 --------------------------------------------

@ B-freq = 0.000000  C-freq = 0.000000     beta(X;X,X) =   -330.92438954
@ B-freq = 0.000000  C-freq = 0.000000     beta(Y;X,X) =   1162.50065807
@ B-freq = 0.000000  C-freq = 0.000000     beta(Z;X,X) =      0.00000000
@ B-freq = 0.017481  C-freq = 0.000000     beta(X;X,X) =   -339.88141690
@ B-freq = 0.017481  C-freq = 0.000000     beta(Y;X,X) =   1194.57626279
@ B-freq = 0.017481  C-freq = 0.000000     beta(Z;X,X) =      0.00000000
@ B-freq = 0.034963  C-freq = 0.000000     beta(X;X,X) =   -369.16220920
@ B-freq = 0.034963  C-freq = 0.000000     beta(Y;X,X) =   1299.96169363
@ B-freq = 0.034963  C-freq = 0.000000     beta(Z;X,X) =      0.00000000
@ B-freq = 0.000000  C-freq = 0.000000     beta(X;Y,X) = beta(Y,X,X)
@ B-freq = 0.000000  C-freq = 0.000000     beta(X;Y,X) =   1162.50070103
@ B-freq = 0.000000  C-freq = 0.000000     beta(Y;Y,X) =  -3083.33222591
@ B-freq = 0.000000  C-freq = 0.000000     beta(Z;Y,X) =     -0.00000000
@ B-freq = 0.017481  C-freq = 0.000000     beta(X;Y,X) =   1194.57630703
@ B-freq = 0.017481  C-freq = 0.000000     beta(Y;Y,X) =  -3188.25198848
@ B-freq = 0.017481  C-freq = 0.000000     beta(Z;Y,X) =     -0.00000000
@ B-freq = 0.034963  C-freq = 0.000000     beta(X;Y,X) =   1299.96174202
@ B-freq = 0.034963  C-freq = 0.000000     beta(Y;Y,X) =  -3536.25633521
@ B-freq = 0.034963  C-freq = 0.000000     beta(Z;Y,X) =     -0.00000000
@ B-freq = 0.000000  C-freq = 0.000000     beta(X;Z,X) = beta(Z,X,X)
@ B-freq = 0.000000  C-freq = 0.000000     beta(Y;Z,X) = beta(Z,Y,X)
@ B-freq = 0.000000  C-freq = 0.000000     beta(X;Z,X) =      0.00000000
@ B-freq = 0.000000  C-freq = 0.000000     beta(Y;Z,X) =     -0.00000000
@ B-freq = 0.000000  C-freq = 0.000000     beta(Z;Z,X) =     15.95874166
@ B-freq = 0.017481  C-freq = 0.000000     beta(X;Z,X) =      0.00000000
@ B-freq = 0.017481  C-freq = 0.000000     beta(Y;Z,X) =     -0.00000000
@ B-freq = 0.017481  C-freq = 0.000000     beta(Z;Z,X) =     16.08632098
@ B-freq = 0.034963  C-freq = 0.000000     beta(X;Z,X) =      0.00000000
@ B-freq = 0.034963  C-freq = 0.000000     beta(Y;Z,X) =     -0.00000000
@ B-freq = 0.034963  C-freq = 0.000000     beta(Z;Z,X) =     16.48201124
@ B-freq = 0.000000  C-freq = 0.017481     beta(X;X,X) = beta(X,X,X)
@ B-freq = 0.000000  C-freq = 0.017481     beta(Y;X,X) = beta(Y,X,X)
@ B-freq = 0.000000  C-freq = 0.017481     beta(Z;X,X) = beta(Z,X,X)
@ B-freq = 0.017481  C-freq = 0.017481     beta(X;X,X) =   -358.98235627
@ B-freq = 0.017481  C-freq = 0.017481     beta(Y;X,X) =   1270.80089682
@ B-freq = 0.017481  C-freq = 0.017481     beta(Z;X,X) =      0.00000000
@ B-freq = 0.034963  C-freq = 0.017481     beta(X;X,X) =   -402.68911006
@ B-freq = 0.034963  C-freq = 0.017481     beta(Y;X,X) =   1439.30021478
@ B-freq = 0.034963  C-freq = 0.017481     beta(Z;X,X) =      0.00000000
@ B-freq = 0.000000  C-freq = 0.017481     beta(X;Y,X) =   1187.60221168
@ B-freq = 0.000000  C-freq = 0.017481     beta(Y;Y,X) =  -3162.00053816
@ B-freq = 0.000000  C-freq = 0.017481     beta(Z;Y,X) =     -0.00000000
@ B-freq = 0.017481  C-freq = 0.017481     beta(X;Y,X) =   1248.26956461
@ B-freq = 0.017481  C-freq = 0.017481     beta(Y;Y,X) =  -3386.32979959
@ B-freq = 0.017481  C-freq = 0.017481     beta(Z;Y,X) =     -0.00000000
@ B-freq = 0.034963  C-freq = 0.017481     beta(X;Y,X) =   1395.43004099
@ B-freq = 0.034963  C-freq = 0.017481     beta(Y;Y,X) =  -3911.04729501
@ B-freq = 0.034963  C-freq = 0.017481     beta(Z;Y,X) =     -0.00000000
@ B-freq = 0.000000  C-freq = 0.017481     beta(X;Z,X) =      0.00000000
@ B-freq = 0.000000  C-freq = 0.017481     beta(Y;Z,X) =     -0.00000000
@ B-freq = 0.000000  C-freq = 0.017481     beta(Z;Z,X) =     16.12031332
@ B-freq = 0.017481  C-freq = 0.017481     beta(X;Z,X) =      0.00000000
@ B-freq = 0.017481  C-freq = 0.017481     beta(Y;Z,X) =     -0.00000000
@ B-freq = 0.017481  C-freq = 0.017481     beta(Z;Z,X) =     16.38246324
@ B-freq = 0.034963  C-freq = 0.017481     beta(X;Z,X) =      0.00000000
@ B-freq = 0.034963  C-freq = 0.017481     beta(Y;Z,X) =     -0.00000000
@ B-freq = 0.034963  C-freq = 0.017481     beta(Z;Z,X) =     16.93423559
@ B-freq = 0.000000  C-freq = 0.034963     beta(X;X,X) = beta(X,X,X)
@ B-freq = 0.000000  C-freq = 0.034963     beta(Y;X,X) = beta(Y,X,X)
@ B-freq = 0.000000  C-freq = 0.034963     beta(Z;X,X) = beta(Z,X,X)
@ B-freq = 0.017481  C-freq = 0.034963     beta(X;X,X) = beta(X,X,X)
@ B-freq = 0.017481  C-freq = 0.034963     beta(Y;X,X) = beta(Y,X,X)
@ B-freq = 0.017481  C-freq = 0.034963     beta(Z;X,X) = beta(Z,X,X)
@ B-freq = 0.034963  C-freq = 0.034963     beta(X;X,X) =   -470.86848608
@ B-freq = 0.034963  C-freq = 0.034963     beta(Y;X,X) =   1715.59524501
@ B-freq = 0.034963  C-freq = 0.034963     beta(Z;X,X) =      0.00000000
@ B-freq = 0.000000  C-freq = 0.034963     beta(X;Y,X) =   1269.13497506
@ B-freq = 0.000000  C-freq = 0.034963     beta(Y;Y,X) =  -3419.52084797
@ B-freq = 0.000000  C-freq = 0.034963     beta(Z;Y,X) =     -0.00000000
@ B-freq = 0.017481  C-freq = 0.034963     beta(X;Y,X) =   1369.96442303
@ B-freq = 0.017481  C-freq = 0.034963     beta(Y;Y,X) =  -3813.50015973
@ B-freq = 0.017481  C-freq = 0.034963     beta(Z;Y,X) =     -0.00000000
@ B-freq = 0.034963  C-freq = 0.034963     beta(X;Y,X) =   1587.23260868
@ B-freq = 0.034963  C-freq = 0.034963     beta(Y;Y,X) =  -4638.57964100
@ B-freq = 0.034963  C-freq = 0.034963     beta(Z;Y,X) =     -0.00000000
@ B-freq = 0.000000  C-freq = 0.034963     beta(X;Z,X) =      0.00000000
@ B-freq = 0.000000  C-freq = 0.034963     beta(Y;Z,X) =     -0.00000000
@ B-freq = 0.000000  C-freq = 0.034963     beta(Z;Z,X) =     16.63068183
@ B-freq = 0.017481  C-freq = 0.034963     beta(X;Z,X) =      0.00000000
@ B-freq = 0.017481  C-freq = 0.034963     beta(Y;Z,X) =     -0.00000000
@ B-freq = 0.017481  C-freq = 0.034963     beta(Z;Z,X) =     17.05105775
@ B-freq = 0.034963  C-freq = 0.034963     beta(X;Z,X) =      0.00000000
@ B-freq = 0.034963  C-freq = 0.034963     beta(Y;Z,X) =     -0.00000000
@ B-freq = 0.034963  C-freq = 0.034963     beta(Z;Z,X) =     17.80361512
@ B-freq = 0.000000  C-freq = 0.000000     beta(X;X,Y) = beta(Y,X,X)
@ B-freq = 0.000000  C-freq = 0.000000     beta(Y;X,Y) = beta(Y,Y,X)
@ B-freq = 0.000000  C-freq = 0.000000     beta(Z;X,Y) = beta(Z,Y,X)
@ B-freq = 0.017481  C-freq = 0.000000     beta(X;X,Y) = beta(X,Y,X)
@ B-freq = 0.017481  C-freq = 0.000000     beta(Y;X,Y) = beta(Y,Y,X)
@ B-freq = 0.017481  C-freq = 0.000000     beta(Z;X,Y) = beta(Z,Y,X)
@ B-freq = 0.034963  C-freq = 0.000000     beta(X;X,Y) = beta(X,Y,X)
@ B-freq = 0.034963  C-freq = 0.000000     beta(Y;X,Y) = beta(Y,Y,X)
@ B-freq = 0.034963  C-freq = 0.000000     beta(Z;X,Y) = beta(Z,Y,X)
@ B-freq = 0.000000  C-freq = 0.000000     beta(X;Y,Y) = beta(Y,Y,X)
@ B-freq = 0.000000  C-freq = 0.000000     beta(X;Y,Y) =  -3083.33265056
@ B-freq = 0.000000  C-freq = 0.000000     beta(Y;Y,Y) =   5657.96580856
@ B-freq = 0.000000  C-freq = 0.000000     beta(Z;Y,Y) =      0.00000000
@ B-freq = 0.017481  C-freq = 0.000000     beta(X;Y,Y) =  -3162.00097641
@ B-freq = 0.017481  C-freq = 0.000000     beta(Y;Y,Y) =   5863.16458997
@ B-freq = 0.017481  C-freq = 0.000000     beta(Z;Y,Y) =      0.00000000
@ B-freq = 0.034963  C-freq = 0.000000     beta(X;Y,Y) =  -3419.52133020
@ B-freq = 0.034963  C-freq = 0.000000     beta(Y;Y,Y) =   6545.24088730
@ B-freq = 0.034963  C-freq = 0.000000     beta(Z;Y,Y) =      0.00000000
@ B-freq = 0.000000  C-freq = 0.000000     beta(X;Z,Y) = beta(Z,Y,X)
@ B-freq = 0.000000  C-freq = 0.000000     beta(Y;Z,Y) = beta(Z,Y,Y)
@ B-freq = 0.000000  C-freq = 0.000000     beta(X;Z,Y) =     -0.00000000
@ B-freq = 0.000000  C-freq = 0.000000     beta(Y;Z,Y) =      0.00000000
@ B-freq = 0.000000  C-freq = 0.000000     beta(Z;Z,Y) =    -38.49463578
@ B-freq = 0.017481  C-freq = 0.000000     beta(X;Z,Y) =     -0.00000000
@ B-freq = 0.017481  C-freq = 0.000000     beta(Y;Z,Y) =      0.00000000
@ B-freq = 0.017481  C-freq = 0.000000     beta(Z;Z,Y) =    -38.93050536
@ B-freq = 0.034963  C-freq = 0.000000     beta(X;Z,Y) =     -0.00000000
@ B-freq = 0.034963  C-freq = 0.000000     beta(Y;Z,Y) =      0.00000000
@ B-freq = 0.034963  C-freq = 0.000000     beta(Z;Z,Y) =    -40.29141458
@ B-freq = 0.000000  C-freq = 0.017481     beta(X;X,Y) = beta(X,Y,X)
@ B-freq = 0.000000  C-freq = 0.017481     beta(Y;X,Y) = beta(Y,Y,X)
@ B-freq = 0.000000  C-freq = 0.017481     beta(Z;X,Y) = beta(Z,Y,X)
@ B-freq = 0.017481  C-freq = 0.017481     beta(X;X,Y) = beta(X,Y,X)
@ B-freq = 0.017481  C-freq = 0.017481     beta(Y;X,Y) = beta(Y,Y,X)
@ B-freq = 0.017481  C-freq = 0.017481     beta(Z;X,Y) = beta(Z,Y,X)
@ B-freq = 0.034963  C-freq = 0.017481     beta(X;X,Y) = beta(X,Y,X)
@ B-freq = 0.034963  C-freq = 0.017481     beta(Y;X,Y) = beta(Y,Y,X)
@ B-freq = 0.034963  C-freq = 0.017481     beta(Z;X,Y) = beta(Z,Y,X)
@ B-freq = 0.000000  C-freq = 0.017481     beta(X;Y,Y) = beta(X,Y,Y)
@ B-freq = 0.000000  C-freq = 0.017481     beta(Y;Y,Y) = beta(Y,Y,Y)
@ B-freq = 0.000000  C-freq = 0.017481     beta(Z;Y,Y) = beta(Z,Y,Y)
@ B-freq = 0.017481  C-freq = 0.017481     beta(X;Y,Y) =  -3301.59714356
@ B-freq = 0.017481  C-freq = 0.017481     beta(Y;Y,Y) =   6306.15883447
@ B-freq = 0.017481  C-freq = 0.017481     beta(Z;Y,Y) =      0.00000000
@ B-freq = 0.034963  C-freq = 0.017481     beta(X;Y,Y) =  -3648.84667726
@ B-freq = 0.034963  C-freq = 0.017481     beta(Y;Y,Y) =   7345.62766385
@ B-freq = 0.034963  C-freq = 0.017481     beta(Z;Y,Y) =      0.00000000
@ B-freq = 0.000000  C-freq = 0.017481     beta(X;Z,Y) =     -0.00000000
@ B-freq = 0.000000  C-freq = 0.017481     beta(Y;Z,Y) =      0.00000000
@ B-freq = 0.000000  C-freq = 0.017481     beta(Z;Z,Y) =    -39.11430798
@ B-freq = 0.017481  C-freq = 0.017481     beta(X;Z,Y) =     -0.00000000
@ B-freq = 0.017481  C-freq = 0.017481     beta(Y;Z,Y) =      0.00000000
@ B-freq = 0.017481  C-freq = 0.017481     beta(Z;Z,Y) =    -40.01652621
@ B-freq = 0.034963  C-freq = 0.017481     beta(X;Z,Y) =     -0.00000000
@ B-freq = 0.034963  C-freq = 0.017481     beta(Y;Z,Y) =      0.00000000
@ B-freq = 0.034963  C-freq = 0.017481     beta(Z;Z,Y) =    -41.93474403
@ B-freq = 0.000000  C-freq = 0.034963     beta(X;X,Y) = beta(X,Y,X)
@ B-freq = 0.000000  C-freq = 0.034963     beta(Y;X,Y) = beta(Y,Y,X)
@ B-freq = 0.000000  C-freq = 0.034963     beta(Z;X,Y) = beta(Z,Y,X)
@ B-freq = 0.017481  C-freq = 0.034963     beta(X;X,Y) = beta(X,Y,X)
@ B-freq = 0.017481  C-freq = 0.034963     beta(Y;X,Y) = beta(Y,Y,X)
@ B-freq = 0.017481  C-freq = 0.034963     beta(Z;X,Y) = beta(Z,Y,X)
@ B-freq = 0.034963  C-freq = 0.034963     beta(X;X,Y) = beta(X,Y,X)
@ B-freq = 0.034963  C-freq = 0.034963     beta(Y;X,Y) = beta(Y,Y,X)
@ B-freq = 0.034963  C-freq = 0.034963     beta(Z;X,Y) = beta(Z,Y,X)
@ B-freq = 0.000000  C-freq = 0.034963     beta(X;Y,Y) = beta(X,Y,Y)
@ B-freq = 0.000000  C-freq = 0.034963     beta(Y;Y,Y) = beta(Y,Y,Y)
@ B-freq = 0.000000  C-freq = 0.034963     beta(Z;Y,Y) = beta(Z,Y,Y)
@ B-freq = 0.017481  C-freq = 0.034963     beta(X;Y,Y) = beta(X,Y,Y)
@ B-freq = 0.017481  C-freq = 0.034963     beta(Y;Y,Y) = beta(Y,Y,Y)
@ B-freq = 0.017481  C-freq = 0.034963     beta(Z;Y,Y) = beta(Z,Y,Y)
@ B-freq = 0.034963  C-freq = 0.034963     beta(X;Y,Y) =  -4154.39684687
@ B-freq = 0.034963  C-freq = 0.034963     beta(Y;Y,Y) =   9028.56587083
@ B-freq = 0.034963  C-freq = 0.034963     beta(Z;Y,Y) =      0.00000000
@ B-freq = 0.000000  C-freq = 0.034963     beta(X;Z,Y) =     -0.00000000
@ B-freq = 0.000000  C-freq = 0.034963     beta(Y;Z,Y) =      0.00000000
@ B-freq = 0.000000  C-freq = 0.034963     beta(Z;Z,Y) =    -41.09492432
@ B-freq = 0.017481  C-freq = 0.034963     beta(X;Z,Y) =     -0.00000000
@ B-freq = 0.017481  C-freq = 0.034963     beta(Y;Z,Y) =      0.00000000
@ B-freq = 0.017481  C-freq = 0.034963     beta(Z;Z,Y) =    -42.56946930
@ B-freq = 0.034963  C-freq = 0.034963     beta(X;Z,Y) =     -0.00000000
@ B-freq = 0.034963  C-freq = 0.034963     beta(Y;Z,Y) =      0.00000000
@ B-freq = 0.034963  C-freq = 0.034963     beta(Z;Z,Y) =    -45.24560025
@ B-freq = 0.000000  C-freq = 0.000000     beta(X;X,Z) = beta(Z,X,X)
@ B-freq = 0.000000  C-freq = 0.000000     beta(Y;X,Z) = beta(Z,Y,X)
@ B-freq = 0.000000  C-freq = 0.000000     beta(Z;X,Z) = beta(Z,Z,X)
@ B-freq = 0.017481  C-freq = 0.000000     beta(X;X,Z) = beta(X,Z,X)
@ B-freq = 0.017481  C-freq = 0.000000     beta(Y;X,Z) = beta(Y,Z,X)
@ B-freq = 0.017481  C-freq = 0.000000     beta(Z;X,Z) = beta(Z,Z,X)
@ B-freq = 0.034963  C-freq = 0.000000     beta(X;X,Z) = beta(X,Z,X)
@ B-freq = 0.034963  C-freq = 0.000000     beta(Y;X,Z) = beta(Y,Z,X)
@ B-freq = 0.034963  C-freq = 0.000000     beta(Z;X,Z) = beta(Z,Z,X)
@ B-freq = 0.000000  C-freq = 0.000000     beta(X;Y,Z) = beta(Z,Y,X)
@ B-freq = 0.000000  C-freq = 0.000000     beta(Y;Y,Z) = beta(Z,Y,Y)
@ B-freq = 0.000000  C-freq = 0.000000     beta(Z;Y,Z) = beta(Z,Z,Y)
@ B-freq = 0.017481  C-freq = 0.000000     beta(X;Y,Z) = beta(X,Z,Y)
@ B-freq = 0.017481  C-freq = 0.000000     beta(Y;Y,Z) = beta(Y,Z,Y)
@ B-freq = 0.017481  C-freq = 0.000000     beta(Z;Y,Z) = beta(Z,Z,Y)
@ B-freq = 0.034963  C-freq = 0.000000     beta(X;Y,Z) = beta(X,Z,Y)
@ B-freq = 0.034963  C-freq = 0.000000     beta(Y;Y,Z) = beta(Y,Z,Y)
@ B-freq = 0.034963  C-freq = 0.000000     beta(Z;Y,Z) = beta(Z,Z,Y)
@ B-freq = 0.000000  C-freq = 0.000000     beta(X;Z,Z) = beta(Z,Z,X)
@ B-freq = 0.000000  C-freq = 0.000000     beta(Y;Z,Z) = beta(Z,Z,Y)
@ B-freq = 0.000000  C-freq = 0.000000     beta(X;Z,Z) =     15.95873464
@ B-freq = 0.000000  C-freq = 0.000000     beta(Y;Z,Z) =    -38.49461141
@ B-freq = 0.000000  C-freq = 0.000000     beta(Z;Z,Z) =      0.00000000
@ B-freq = 0.017481  C-freq = 0.000000     beta(X;Z,Z) =     16.12030614
@ B-freq = 0.017481  C-freq = 0.000000     beta(Y;Z,Z) =    -39.11428293
@ B-freq = 0.017481  C-freq = 0.000000     beta(Z;Z,Z) =      0.00000000
@ B-freq = 0.034963  C-freq = 0.000000     beta(X;Z,Z) =     16.63067415
@ B-freq = 0.034963  C-freq = 0.000000     beta(Y;Z,Z) =    -41.09489708
@ B-freq = 0.034963  C-freq = 0.000000     beta(Z;Z,Z) =      0.00000000
@ B-freq = 0.000000  C-freq = 0.017481     beta(X;X,Z) = beta(X,Z,X)
@ B-freq = 0.000000  C-freq = 0.017481     beta(Y;X,Z) = beta(Y,Z,X)
@ B-freq = 0.000000  C-freq = 0.017481     beta(Z;X,Z) = beta(Z,Z,X)
@ B-freq = 0.017481  C-freq = 0.017481     beta(X;X,Z) = beta(X,Z,X)
@ B-freq = 0.017481  C-freq = 0.017481     beta(Y;X,Z) = beta(Y,Z,X)
@ B-freq = 0.017481  C-freq = 0.017481     beta(Z;X,Z) = beta(Z,Z,X)
@ B-freq = 0.034963  C-freq = 0.017481     beta(X;X,Z) = beta(X,Z,X)
@ B-freq = 0.034963  C-freq = 0.017481     beta(Y;X,Z) = beta(Y,Z,X)
@ B-freq = 0.034963  C-freq = 0.017481     beta(Z;X,Z) = beta(Z,Z,X)
@ B-freq = 0.000000  C-freq = 0.017481     beta(X;Y,Z) = beta(X,Z,Y)
@ B-freq = 0.000000  C-freq = 0.017481     beta(Y;Y,Z) = beta(Y,Z,Y)
@ B-freq = 0.000000  C-freq = 0.017481     beta(Z;Y,Z) = beta(Z,Z,Y)
@ B-freq = 0.017481  C-freq = 0.017481     beta(X;Y,Z) = beta(X,Z,Y)
@ B-freq = 0.017481  C-freq = 0.017481     beta(Y;Y,Z) = beta(Y,Z,Y)
@ B-freq = 0.017481  C-freq = 0.017481     beta(Z;Y,Z) = beta(Z,Z,Y)
@ B-freq = 0.034963  C-freq = 0.017481     beta(X;Y,Z) = beta(X,Z,Y)
@ B-freq = 0.034963  C-freq = 0.017481     beta(Y;Y,Z) = beta(Y,Z,Y)
@ B-freq = 0.034963  C-freq = 0.017481     beta(Z;Y,Z) = beta(Z,Z,Y)
@ B-freq = 0.000000  C-freq = 0.017481     beta(X;Z,Z) = beta(X,Z,Z)
@ B-freq = 0.000000  C-freq = 0.017481     beta(Y;Z,Z) = beta(Y,Z,Z)
@ B-freq = 0.000000  C-freq = 0.017481     beta(Z;Z,Z) = beta(Z,Z,Z)
@ B-freq = 0.017481  C-freq = 0.017481     beta(X;Z,Z) =     16.49530509
@ B-freq = 0.017481  C-freq = 0.017481     beta(Y;Z,Z) =    -40.62329687
@ B-freq = 0.017481  C-freq = 0.017481     beta(Z;Z,Z) =      0.00000000
@ B-freq = 0.034963  C-freq = 0.017481     beta(X;Z,Z) =     17.28312483
@ B-freq = 0.034963  C-freq = 0.017481     beta(Y;Z,Z) =    -43.80323711
@ B-freq = 0.034963  C-freq = 0.017481     beta(Z;Z,Z) =      0.00000000
@ B-freq = 0.000000  C-freq = 0.034963     beta(X;X,Z) = beta(X,Z,X)
@ B-freq = 0.000000  C-freq = 0.034963     beta(Y;X,Z) = beta(Y,Z,X)
@ B-freq = 0.000000  C-freq = 0.034963     beta(Z;X,Z) = beta(Z,Z,X)
@ B-freq = 0.017481  C-freq = 0.034963     beta(X;X,Z) = beta(X,Z,X)
@ B-freq = 0.017481  C-freq = 0.034963     beta(Y;X,Z) = beta(Y,Z,X)
@ B-freq = 0.017481  C-freq = 0.034963     beta(Z;X,Z) = beta(Z,Z,X)
@ B-freq = 0.034963  C-freq = 0.034963     beta(X;X,Z) = beta(X,Z,X)
@ B-freq = 0.034963  C-freq = 0.034963     beta(Y;X,Z) = beta(Y,Z,X)
@ B-freq = 0.034963  C-freq = 0.034963     beta(Z;X,Z) = beta(Z,Z,X)
@ B-freq = 0.000000  C-freq = 0.034963     beta(X;Y,Z) = beta(X,Z,Y)
@ B-freq = 0.000000  C-freq = 0.034963     beta(Y;Y,Z) = beta(Y,Z,Y)
@ B-freq = 0.000000  C-freq = 0.034963     beta(Z;Y,Z) = beta(Z,Z,Y)
@ B-freq = 0.017481  C-freq = 0.034963     beta(X;Y,Z) = beta(X,Z,Y)
@ B-freq = 0.017481  C-freq = 0.034963     beta(Y;Y,Z) = beta(Y,Z,Y)
@ B-freq = 0.017481  C-freq = 0.034963     beta(Z;Y,Z) = beta(Z,Z,Y)
@ B-freq = 0.034963  C-freq = 0.034963     beta(X;Y,Z) = beta(X,Z,Y)
@ B-freq = 0.034963  C-freq = 0.034963     beta(Y;Y,Z) = beta(Y,Z,Y)
@ B-freq = 0.034963  C-freq = 0.034963     beta(Z;Y,Z) = beta(Z,Z,Y)
@ B-freq = 0.000000  C-freq = 0.034963     beta(X;Z,Z) = beta(X,Z,Z)
@ B-freq = 0.000000  C-freq = 0.034963     beta(Y;Z,Z) = beta(Y,Z,Z)
@ B-freq = 0.000000  C-freq = 0.034963     beta(Z;Z,Z) = beta(Z,Z,Z)
@ B-freq = 0.017481  C-freq = 0.034963     beta(X;Z,Z) = beta(X,Z,Z)
@ B-freq = 0.017481  C-freq = 0.034963     beta(Y;Z,Z) = beta(Y,Z,Z)
@ B-freq = 0.017481  C-freq = 0.034963     beta(Z;Z,Z) = beta(Z,Z,Z)
@ B-freq = 0.034963  C-freq = 0.034963     beta(X;Z,Z) =     18.49719646
@ B-freq = 0.034963  C-freq = 0.034963     beta(Y;Z,Z) =    -48.90329447
@ B-freq = 0.034963  C-freq = 0.034963     beta(Z;Z,Z) =      0.00000000

  Total CPU  time used in RESPONSE:   2 hours 24 minutes 47 seconds
  Total wall time used in RESPONSE:   2 hours 25 minutes 32 seconds


                   .-------------------------------------------.
                   | End of Dynamic Property Section (RESPONS) |
                   `-------------------------------------------'

  Total CPU  time used in DALTON:   2 hours 45 minutes  4 seconds
  Total wall time used in DALTON:   2 hours 45 minutes 55 seconds

 
     Date and time (Linux)  : Wed May  7 12:55:22 2025
     Host name              : xm048                                   
