

     ************************************************************************
     *************** Dalton - An Electronic Structure Program ***************
     ************************************************************************

    This is output from DALTON release Dalton2020.0 (2020)
         ( Web site: http://daltonprogram.org )

   ----------------------------------------------------------------------------

    NOTE:
     
    Dalton is an experimental code for the evaluation of molecular
    properties using (MC)SCF, DFT, CI, and CC wave functions.
    The authors accept no responsibility for the performance of
    the code or for the correctness of the results.
     
    The code (in whole or part) is provided under a licence and
    is not to be reproduced for further distribution without
    the written permission of the authors or their representatives.
     
    See the home page "http://daltonprogram.org" for further information.
     
    If results obtained with this code are published,
    the appropriate citations would be both of:
     
       K. Aidas, C. Angeli, K. L. Bak, V. Bakken, R. Bast,
       L. Boman, O. Christiansen, R. Cimiraglia, S. Coriani,
       P. Dahle, E. K. Dalskov, U. Ekstroem,
       T. Enevoldsen, J. J. Eriksen, P. Ettenhuber, B. Fernandez,
       L. Ferrighi, H. Fliegl, L. Frediani, K. Hald, A. Halkier,
       C. Haettig, H. Heiberg, T. Helgaker, A. C. Hennum,
       H. Hettema, E. Hjertenaes, S. Hoest, I.-M. Hoeyvik,
       M. F. Iozzi, B. Jansik, H. J. Aa. Jensen, D. Jonsson,
       P. Joergensen, J. Kauczor, S. Kirpekar,
       T. Kjaergaard, W. Klopper, S. Knecht, R. Kobayashi, H. Koch,
       J. Kongsted, A. Krapp, K. Kristensen, A. Ligabue,
       O. B. Lutnaes, J. I. Melo, K. V. Mikkelsen, R. H. Myhre,
       C. Neiss, C. B. Nielsen, P. Norman, J. Olsen,
       J. M. H. Olsen, A. Osted, M. J. Packer, F. Pawlowski,
       T. B. Pedersen, P. F. Provasi, S. Reine, Z. Rinkevicius,
       T. A. Ruden, K. Ruud, V. Rybkin, P. Salek, C. C. M. Samson,
       A. Sanchez de Meras, T. Saue, S. P. A. Sauer,
       B. Schimmelpfennig, K. Sneskov, A. H. Steindal,
       K. O. Sylvester-Hvid, P. R. Taylor, A. M. Teale,
       E. I. Tellgren, D. P. Tew, A. J. Thorvaldsen, L. Thoegersen,
       O. Vahtras, M. A. Watson, D. J. D. Wilson, M. Ziolkowski
       and H. Agren,
       "The Dalton quantum chemistry program system",
       WIREs Comput. Mol. Sci. 2014, 4:269–284 (doi: 10.1002/wcms.1172)
     
    and
     
       Dalton, a molecular electronic structure program,
       Release Dalton2020.0 (2020), see http://daltonprogram.org
   ----------------------------------------------------------------------------

    Authors in alphabetical order (Major contribution(s) in parenthesis):

  Kestutis Aidas,           Vilnius University,           Lithuania   (QM/MM)
  Celestino Angeli,         University of Ferrara,        Italy       (NEVPT2)
  Keld L. Bak,              UNI-C,                        Denmark     (AOSOPPA, non-adiabatic coupling, magnetic properties)
  Vebjoern Bakken,          University of Oslo,           Norway      (DALTON; geometry optimizer, symmetry detection)
  Radovan Bast,             UiT The Arctic U. of Norway,  Norway      (DALTON installation and execution frameworks)
  Pablo Baudin,             University of Valencia,       Spain       (Cholesky excitation energies)
  Linus Boman,              NTNU,                         Norway      (Cholesky decomposition and subsystems)
  Bruno N. Cabral Tenorio,  Technical Univ. of Denmark,   Denmark     (Lanczos-based CC methods)
  Ove Christiansen,         Aarhus University,            Denmark     (CC module)
  Renzo Cimiraglia,         University of Ferrara,        Italy       (NEVPT2)
  Sonia Coriani,            Technical Univ. of Denmark,   Denmark     (CC and RESPONS modules)
  Janusz Cukras,            University of Warsaw,         Poland      (MChD in RESPONS)
  Paal Dahle,               University of Oslo,           Norway      (Parallelization)
  Erik K. Dalskov,          UNI-C,                        Denmark     (SOPPA)
  Thomas Enevoldsen,        Univ. of Southern Denmark,    Denmark     (SOPPA)
  Janus J. Eriksen,         Aarhus University,            Denmark     (Polarizable embedding, TDA)
  Rasmus Faber,             Technical Univ. of Denmark,   Denmark     (Vib.avg. NMR w. SOPPA, parallel AO-SOPPA, CVS-CC and EOMCC)
  Tobias Fahleson,          KTH Stockholm,                Sweden      (Damped cubic response)
  Berta Fernandez,          U. of Santiago de Compostela, Spain       (Doublet spin, ESR in RESPONS)
  Lara Ferrighi,            Aarhus University,            Denmark     (PCM Cubic response)
  Heike Fliegl,             University of Oslo,           Norway      (CCSD(R12))
  Luca Frediani,            UiT The Arctic U. of Norway,  Norway      (PCM)
  Emmanuel Fromager,        Univ. Strasbourg,             France      (MC-srDFT)
  Bin Gao,                  UiT The Arctic U. of Norway,  Norway      (Gen1Int library)
  Andre S. P. Gomes,        CNRS/Universite de Lille,     France      (Frozen density embedding)
  Christof Haettig,         Ruhr-University Bochum,       Germany     (CC module)
  Kasper Hald,              Aarhus University,            Denmark     (CC module)
  Asger Halkier,            Aarhus University,            Denmark     (CC module)
  Frederik Beyer Hansen,    University of Copenhagen,     Denmark     (Parallel AO-SOPPA)
  Erik D. Hedegaard,        Univ. of Southern Denmark,    Denmark     (Polarizable embedding, QM/MM, and MC-srDFT)
  Hanne Heiberg,            University of Oslo,           Norway      (Geometry analysis, selected one-electron integrals)
  Trygve Helgaker,          University of Oslo,           Norway      (DALTON; ABACUS, ERI, DFT modules, London, and much more)
  Alf Christian Hennum,     University of Oslo,           Norway      (Parity violation)
  Hinne Hettema,            University of Auckland,       New Zealand (Quadratic response in RESPONS; SIRIUS supersymmetry)
  Eirik Hjertenaes,         NTNU,                         Norway      (Cholesky decomposition)
  Pi A. B. Haase,           University of Copenhagen,     Denmark     (Triplet AO-SOPPA)
  Maria Francesca Iozzi,    University of Oslo,           Norway      (RPA)
  Christoph Jacob           TU Braunschweig               Germany     (Frozen density embedding)
  Brano Jansik              Technical Univ. of Ostrava    Czech Rep.  (DFT cubic response)
  Hans Joergen Aa. Jensen,  Univ. of Southern Denmark,    Denmark     (DALTON; SIRIUS, RESPONS, ABACUS, MC-srDFT, and much more)
  Dan Jonsson,              UiT The Arctic U. of Norway,  Norway      (Cubic response in RESPONS module)
  Poul Joergensen,          Aarhus University,            Denmark     (RESPONS, ABACUS, and CC modules)
  Maciej Kaminski,          University of Warsaw,         Poland      (CPPh in RESPONS)
  Joanna Kauczor,           Linkoeping University,        Sweden      (Complex polarization propagator (CPP) module)
  Sheela Kirpekar,          Univ. of Southern Denmark,    Denmark     (Mass-velocity & Darwin integrals)
  Erik Kjellgren,           Univ. of Southern Denmark,    Denmark     (MC-srDFT)
  Wim Klopper,              KIT Karlsruhe,                Germany     (R12 code in CC, SIRIUS, and ABACUS modules)
  Stefan Knecht,            ETH Zurich,                   Switzerland (Parallel CI and MCSCF, MC-srDFT)
  Rika Kobayashi,           Australian National Univ.,    Australia   (DIIS in CC, London in MCSCF)
  Henrik Koch,              NTNU,                         Norway      (CC module, Cholesky decomposition)
  Jacob Kongsted,           Univ. of Southern Denmark,    Denmark     (Polarizable embedding, polarizable density embedding, QM/MM)
  Andrea Ligabue,           University of Modena,         Italy       (CTOCD, AOSOPPA)
  Nanna H. List             Univ. of Southern Denmark,    Denmark     (Polarizable embedding)
  Ola B. Lutnaes,           University of Oslo,           Norway      (DFT Hessian)
  Juan I. Melo,             University of Buenos Aires,   Argentina   (LRESC, Relativistic Effects on NMR Shieldings)
  Kurt V. Mikkelsen,        University of Copenhagen,     Denmark     (MC-SCRF and QM/MM)
  Rolf H. Myhre,            NTNU,                         Norway      (Subsystems and CC3)
  Christian Neiss,          Univ. Erlangen-Nuernberg,     Germany     (CCSD(R12))
  Christian B. Nielsen,     University of Copenhagen,     Denmark     (QM/MM)
  Patrick Norman,           KTH Stockholm,                Sweden      (Cubic response and complex frequency response in RESPONS)
  Jeppe Olsen,              Aarhus University,            Denmark     (SIRIUS CI/density modules)
  Jogvan Magnus H. Olsen,   Aarhus University,            Denmark     (Polarizable embedding and polarizable density embedding)
  Anders Osted,             Copenhagen University,        Denmark     (QM/MM)
  Martin J. Packer,         University of Sheffield,      UK          (SOPPA)
  Filip Pawlowski,          Kazimierz Wielki University,  Poland      (CC3)
  Morten N. Pedersen,       Univ. of Southern Denmark,    Denmark     (Polarizable embedding)
  Thomas B. Pedersen,       University of Oslo,           Norway      (Cholesky decomposition)
  Patricio F. Provasi,      University of Northeastern,   Argentina   (Analysis of coupling constants in localized orbitals)
  Peter Reinholdt,          Univ. of Southern Denmark,    Denmark     (Polarizable embedding and polarizable density embedding)
  Zilvinas Rinkevicius,     KTH Stockholm,                Sweden      (open-shell DFT, ESR)
  Elias Rudberg,            KTH Stockholm,                Sweden      (DFT grid and basis info)
  Torgeir A. Ruden,         University of Oslo,           Norway      (Numerical derivatives in ABACUS)
  Kenneth Ruud,             UiT The Arctic U. of Norway,  Norway      (DALTON; ABACUS magnetic properties and much more)
  Pawel Salek,              KTH Stockholm,                Sweden      (DALTON; DFT code)
  Claire C. M. Samson       University of Karlsruhe       Germany     (Boys localization, r12 integrals in ERI)
  Alfredo Sanchez de Meras, University of Valencia,       Spain       (CC module, Cholesky decomposition)
  Trond Saue,               Paul Sabatier University,     France      (direct Fock matrix construction)
  Stephan P. A. Sauer,      University of Copenhagen,     Denmark     (SOPPA(CCSD), SOPPA prop., AOSOPPA, vibrational g-factors)
  Bernd Schimmelpfennig,    Forschungszentrum Karlsruhe,  Germany     (AMFI module)
  Anna K. Schnack-Petersen, University of Copenhagen,     Denmark     (RPA(D) and HRPA(D) properties in AOSOPPA)
  Kristian Sneskov,         Aarhus University,            Denmark     (Polarizable embedding, QM/MM)
  Arnfinn H. Steindal,      UiT The Arctic U. of Norway,  Norway      (parallel QM/MM, polarizable embedding)
  Casper Steinmann,         Aalborg University,           Denmark     (QFIT, polarizable embedding)
  K. O. Sylvester-Hvid,     University of Copenhagen,     Denmark     (MC-SCRF)
  Peter R. Taylor,          VLSCI/Univ. of Melbourne,     Australia   (Symmetry handling ABACUS, integral transformation)
  Andrew M. Teale,          University of Nottingham,     England     (DFT-AC, DFT-D)
  David P. Tew,             University of Bristol,        England     (CCSD(R12))
  Julien Toulouse,          Sorbonne Univ.,               France      (MC-srDFT)
  Olav Vahtras,             KTH Stockholm,                Sweden      (Triplet response, spin-orbit, ESR, TDDFT, open-shell DFT)
  Lucas Visscher,           Vrije Universiteit Amsterdam, Netherlands (Frozen density embedding)
  David J. Wilson,          La Trobe University,          Australia   (DFT Hessian and DFT magnetizabilities)
  Hans Agren,               KTH Stockholm,                Sweden      (SIRIUS module, RESPONS, MC-SCRF solvation)
 --------------------------------------------------------------------------------

     Date and time (Linux)  : Thu May  8 15:32:23 2025
     Host name              : xm046                                   

 * Work memory size             :  1310720000 =  9.766 gigabytes.

 * Directories for basis set searches:
   1) /gpfs/projects/rjh/adrian/summer2025/beta_projects/raw_data/NLO/dalton/hf/n4/dipole
   2) /gpfs/projects/rjh/adrian/dalton/build/basis


Compilation information
-----------------------

 Who compiled             | ahurtado
 Host                     | milan2
 System                   | Linux-5.14.0-427.42.1.el9_4.x86_64
 CMake generator          | Unix Makefiles
 Processor                | x86_64
 64-bit integers          | OFF
 MPI                      | ON
 Fortran compiler         | /gpfs/software/openmpi/milan/gcc13.2/4.1.6/bin/mpi
                          | f90
 Fortran compiler version | GNU Fortran (GCC) 13.2.0
 C compiler               | /gpfs/software/openmpi/milan/gcc13.2/4.1.6/bin/mpi
                          | cc
 C compiler version       | gcc (GCC) 13.2.0
 C++ compiler             | /gpfs/software/openmpi/milan/gcc13.2/4.1.6/bin/mpi
                          | cxx
 C++ compiler version     | unknown
 BLAS                     | /gpfs/software/intel/oneAPI/2024_2/mkl/2024.2/lib/
                          | intel64/libmkl_gf_lp64.so;/gpfs/software/intel/one
                          | API/2024_2/mkl/2024.2/lib/intel64/libmkl_sequentia
                          | l.so;/gpfs/software/intel/oneAPI/2024_2/mkl/2024.2
                          | /lib/intel64/libmkl_core.so;/usr/lib64/libpthread.
                          | a;/usr/lib64/libm.so
 LAPACK                   | /gpfs/software/intel/oneAPI/2024_2/mkl/2024.2/lib/
                          | intel64/libmkl_lapack95_lp64.a;/gpfs/software/inte
                          | l/oneAPI/2024_2/mkl/2024.2/lib/intel64/libmkl_gf_l
                          | p64.so
 Static linking           | OFF
 Last Git revision        | 66052b3af5ea7225e31178bf9a8b031913c72190
 Git branch               | (HEAD detached at Dalton2020.0)
 Configuration time       | 2025-04-10 16:02:31.569498

 * MPI parallel run using 96 processes.


   Content of the .dal input file
 ----------------------------------

**DALTON INPUT
.RUN RESPONSE
.DIRECT
**WAVE FUNCTIONS
.HF
**PROPERTIES
**RESPONSE
*QUADRA
.DIPLEN
.FREQUENCIES
2
0.0 0.0233
**END OF DALTON INPUT


   Content of the .mol file
 ----------------------------

BASIS
aug-cc-pVQZ
blah
blah
Atomtype=4 Angstrom Charge=0 Nosymmetry
Charge=6 Atoms=8
C_a -1.1882749990853696 5.117256998104514 0.0
C_b -1.5969329996265353 3.809735999842726 0.0
C_c -0.6564090019655506 2.7190129991747667 0.0
C_d -0.9857789998795103 1.387195998766701 0.0
C_e 0.0 0.33539000253089535 0.0
C_f -0.2866469975212757 -1.0046079981775466 0.0
C_g 0.7451960001128884 -2.0162560006291397 0.0
C_h 0.49348400143119636 -3.346346999604479 0.0
Charge=7 Atoms=2
N_a -1.9995219990328295 6.216471001666405 0.0
N_b 1.57848899891635 -4.318030999345519 0.0
Charge=8 Atoms=2
O_a 2.744088997946027 -3.913927002627481 0.0
O_b 1.2323250012939346 -5.50623099814482 0.0
Charge=1 Atoms=10
H_a -0.11499899751206023 5.345406000328604 0.0
H_b -2.670389000828054 3.577750002457105 0.0
H_c -3.0058400016160234 6.118605000075728 0.0
H_d -1.6131520006696491 7.147926002625104 0.0
H_e 0.4128139996006046 2.9826160013713494 0.0
H_f -2.0460389989386774 1.0977839974019534 0.0
H_g 1.0580160019302323 0.6387760023731218 0.0
H_h -1.3358889978770827 -1.3294699989350738 0.0
H_i 1.795708999460371 -1.7003540019438161 0.0
H_j -0.492141997441393 -3.815153001736331 0.0


       *******************************************************************
       *********** Output from DALTON general input processing ***********
       *******************************************************************

 --------------------------------------------------------------------------------
   Overall default print level:    0
   Print level for DALTON.STAT:    1

    Parallel calculation using MPI
    AO-direct calculation (in sections where implemented)
    HERMIT 1- and 2-electron integral sections will be executed
    "Old" integral transformation used (limited to max 255 basis functions)
    Wave function sections will be executed (SIRIUS module)
    Dynamic molecular response properties section will be executed (RESPONSE module)
 --------------------------------------------------------------------------------


   ****************************************************************************
   *************** Output of molecule and basis set information ***************
   ****************************************************************************


    The two title cards from your ".mol" input:
    ------------------------------------------------------------------------
 1: blah                                                                    
 2: blah                                                                    
    ------------------------------------------------------------------------

  Coordinates are entered in Angstrom and converted to atomic units.
          - Conversion factor : 1 bohr = 0.52917721 A

  Atomic type no.    1
  --------------------
  Nuclear charge:   6.00000
  Number of symmetry independent centers:    8
  Number of basis sets to read;    2
  Basis set file used for this atomic type with Z =   6 :
     "/gpfs/projects/rjh/adrian/dalton/build/basis/aug-cc-pVQZ"

  Atomic type no.    2
  --------------------
  Nuclear charge:   7.00000
  Number of symmetry independent centers:    2
  Number of basis sets to read;    2
  Basis set file used for this atomic type with Z =   7 :
     "/gpfs/projects/rjh/adrian/dalton/build/basis/aug-cc-pVQZ"

  Atomic type no.    3
  --------------------
  Nuclear charge:   8.00000
  Number of symmetry independent centers:    2
  Number of basis sets to read;    2
  Basis set file used for this atomic type with Z =   8 :
     "/gpfs/projects/rjh/adrian/dalton/build/basis/aug-cc-pVQZ"

  Atomic type no.    4
  --------------------
  Nuclear charge:   1.00000
  Number of symmetry independent centers:   10
  Number of basis sets to read;    2
  Basis set file used for this atomic type with Z =   1 :
     "/gpfs/projects/rjh/adrian/dalton/build/basis/aug-cc-pVQZ"


                         SYMGRP: Point group information
                         -------------------------------

@    Point group: C1 


                                 Isotopic Masses
                                 ---------------

                           C_a        12.000000
                           C_b        12.000000
                           C_c        12.000000
                           C_d        12.000000
                           C_e        12.000000
                           C_f        12.000000
                           C_g        12.000000
                           C_h        12.000000
                           N_a        14.003074
                           N_b        14.003074
                           O_a        15.994915
                           O_b        15.994915
                           H_a         1.007825
                           H_b         1.007825
                           H_c         1.007825
                           H_d         1.007825
                           H_e         1.007825
                           H_f         1.007825
                           H_g         1.007825
                           H_h         1.007825
                           H_i         1.007825
                           H_j         1.007825

                       Total mass:   166.074228 amu
                       Natural abundance:  90.284 %

 Center-of-mass coordinates (a.u.):    0.090208   -0.225905    0.000000
 Center-of-mass coordinates (Angs):    0.047736   -0.119544    0.000000


  Atoms and basis sets
  --------------------

  Number of atom types :    4
  Total number of atoms:   22

  Basis set used is "aug-cc-pVQZ" from the basis set library.

  label    atoms   charge   prim   cont     basis
  ----------------------------------------------------------------------
  C_          8    6.0000    93    80      [13s7p4d3f2g|6s5p4d3f2g]                           
  N_          2    7.0000    93    80      [13s7p4d3f2g|6s5p4d3f2g]                           
  O_          2    8.0000    93    80      [13s7p4d3f2g|6s5p4d3f2g]                           
  H_         10    1.0000    48    46      [7s4p3d2f|5s4p3d2f]                                
  ----------------------------------------------------------------------
  total:     22   88.0000  1596  1420
  ----------------------------------------------------------------------
  Spherical harmonic basis used.

  Threshold for neglecting AO integrals:  1.00D-12

  Max    interatomic separation is   12.9701 Angstrom (   24.5100 Bohr)
  between atoms   16 and   12, "H_d   " and "O_b   ".

  Min HX interatomic separation is    1.0084 Angstrom (    1.9056 Bohr)

  Min YX interatomic separation is    1.2337 Angstrom (    2.3313 Bohr)


  Bond distances (Angstrom):
  --------------------------

                  atom 1     atom 2       distance
                  ------     ------       --------
  bond distance:  C_b        C_a          1.369895
  bond distance:  C_c        C_b          1.440230
  bond distance:  C_d        C_c          1.371941
  bond distance:  C_e        C_d          1.441546
  bond distance:  C_f        C_e          1.370314
  bond distance:  C_g        C_f          1.445037
  bond distance:  C_h        C_g          1.353699
  bond distance:  N_a        C_a          1.366160
  bond distance:  N_b        C_h          1.456505
  bond distance:  O_a        N_b          1.233663
  bond distance:  O_b        N_b          1.237598
  bond distance:  H_a        C_a          1.097257
  bond distance:  H_b        C_b          1.098237
  bond distance:  H_c        N_a          1.011066
  bond distance:  H_d        N_a          1.008410
  bond distance:  H_e        C_c          1.101238
  bond distance:  H_f        C_d          1.099050
  bond distance:  H_g        C_e          1.100655
  bond distance:  H_h        C_f          1.098382
  bond distance:  H_i        C_g          1.096983
  bond distance:  H_j        C_h          1.091438


  Bond angles (degrees):
  ----------------------

                  atom 1     atom 2     atom 3         angle
                  ------     ------     ------         -----
  bond angle:     C_b        C_a        N_a          126.215
  bond angle:     C_b        C_a        H_a          119.357
  bond angle:     N_a        C_a        H_a          114.427
  bond angle:     C_a        C_b        C_c          121.873
  bond angle:     C_a        C_b        H_b          119.551
  bond angle:     C_c        C_b        H_b          118.576
  bond angle:     C_b        C_c        C_d          125.338
  bond angle:     C_b        C_c        H_e          116.922
  bond angle:     C_d        C_c        H_e          117.740
  bond angle:     C_c        C_d        C_e          122.965
  bond angle:     C_c        C_d        H_f          119.159
  bond angle:     C_e        C_d        H_f          117.876
  bond angle:     C_d        C_e        C_f          124.781
  bond angle:     C_d        C_e        H_g          117.144
  bond angle:     C_f        C_e        H_g          118.075
  bond angle:     C_e        C_f        C_g          122.359
  bond angle:     C_e        C_f        H_h          119.278
  bond angle:     C_g        C_f        H_h          118.363
  bond angle:     C_f        C_g        C_h          123.718
  bond angle:     C_f        C_g        H_i          118.830
  bond angle:     C_h        C_g        H_i          117.453
  bond angle:     C_g        C_h        N_b          121.130
  bond angle:     C_g        C_h        H_j          126.154
  bond angle:     N_b        C_h        H_j          112.716
  bond angle:     C_a        N_a        H_c          120.874
  bond angle:     C_a        N_a        H_d          121.043
  bond angle:     H_c        N_a        H_d          118.083
  bond angle:     C_h        N_b        O_a          119.033
  bond angle:     C_h        N_b        O_b          115.604
  bond angle:     O_a        N_b        O_b          125.364




 Principal moments of inertia (u*A**2) and principal axes
 --------------------------------------------------------

   IA      70.354815         -0.316751    0.948509    0.000000
   IB    2757.102656          0.948509    0.316751    0.000000
   IC    2827.457470          0.000000    0.000000    1.000000


 Rotational constants
 --------------------

@    The molecule is planar.

               A                   B                   C

           7183.2896            183.3008            178.7397 MHz
            0.239609            0.006114            0.005962 cm-1


@  Nuclear repulsion energy :  574.625117125708 Hartree


                     .---------------------------------------.
                     | Starting in Integral Section (HERMIT) |
                     `---------------------------------------'



 ***************************************************************************************
 ****************** Output from **INTEGRALS input processing (HERMIT) ******************
 ***************************************************************************************


 - Using defaults, no **INTEGRALS input found

 Default print level:        1

 Calculation of one-electron Hamiltonian integrals.

 Center of mass  (bohr):      0.090207604024     -0.225905365811      0.000000000000
 Operator center (bohr):      0.000000000000      0.000000000000      0.000000000000
 Gauge origin    (bohr):      0.000000000000      0.000000000000      0.000000000000
 Dipole origin   (bohr):      0.000000000000      0.000000000000      0.000000000000


     ************************************************************************
     ************************** Output from HERINT **************************
     ************************************************************************



                      Nuclear contribution to dipole moments
                      --------------------------------------

                 au               Debye          C m (/(10**-30)

      x     -0.00001508        -0.00003833        -0.00012785
      y     -0.00002265        -0.00005757        -0.00019203
      z      0.00000000         0.00000000         0.00000000


  Time used in ONEDRV     is       2.79 seconds
  Time used in HUCKEL     is       0.75 seconds
  Time used in OVERLAP    is       0.42 seconds
  Time used in POPOVLP    is       0.82 seconds
  Time used in R2         is       0.53 seconds
  Time used in R4         is       0.65 seconds
  Time used in DIPLEN     is       0.83 seconds
  Time used in QUADRUP    is       1.71 seconds
  Time used in KINENE     is       0.70 seconds
  Time used in GABGEN     is      11.13 seconds
  Total CPU  time used in HERMIT:  20.34 seconds
  Total wall time used in HERMIT:  20.53 seconds


                        .----------------------------------.
                        | End of Integral Section (HERMIT) |
                        `----------------------------------'



                   .--------------------------------------------.
                   | Starting in Wave Function Section (SIRIUS) |
                   `--------------------------------------------'



@ Primary orbitals are deleted during canonical orthonormalization
@   because of detected numerical linear dependence or too large coefficients.
@ Eigenvalue threshold for num. lin. dep. =  1.00D-06

@  10 MO components are deleted in symmetry    1
 Overlap eigenvalues of the deleted orbitals:
  9.96D-07  9.83D-07  9.29D-07  6.92D-07  5.71D-07
  5.03D-07  4.27D-07  3.86D-07  3.19D-07  2.91D-07

 Max MO coeff. of last deleted MO & limit:  4.62D+02  1.00D+03

WARNING: Orbitals have been deleted because of numerical
   linear dependence although not requested in input.

 *** Output from Huckel module :

     Using EWMO model:          T
     Using EHT  model:          F
     Number of Huckel orbitals each symmetry:   70

 EWMO - Energy Weighted Maximum Overlap - is a Huckel type method,
        which normally is better than Extended Huckel Theory.
 Reference: Linderberg and Ohrn, Propagators in Quantum Chemistry (Wiley, 1973)

 Huckel EWMO eigenvalues for symmetry :  1
          -20.684751     -20.683481     -15.677073     -15.674988     -11.359146
          -11.358653     -11.356154     -11.352584     -11.347974     -11.346240
          -11.345424     -11.345374      -1.964162      -1.788082      -1.734786
           -1.596046      -1.447484      -1.387161      -1.184566      -1.157865
           -1.049213      -0.965971      -0.906339      -0.851949      -0.832685
           -0.754031      -0.750101      -0.745427      -0.670108      -0.663157
           -0.633145      -0.596679      -0.585930      -0.560104      -0.541106
           -0.538394      -0.508141      -0.496618      -0.484080      -0.482371
           -0.461805      -0.453057      -0.387938      -0.383238      -0.333745
           -0.273894      -0.234058      -0.229197      -0.209688      -0.201310
           -0.197331      -0.190415      -0.166296      -0.142751      -0.138050
           -0.131383      -0.129230      -0.128854      -0.126770      -0.126476
           -0.124464      -0.123265      -0.109230      -0.103580      -0.097345
           -0.092683      -0.088052      -0.086885      -0.083314      -0.079948

 **********************************************************************
 *SIRIUS* a direct, restricted step, second order MCSCF program       *
 **********************************************************************

 
     Date and time (Linux)  : Thu May  8 15:35:11 2025
     Host name              : xm046                                   

 Title lines from ".mol" input file:
     blah                                                                    
     blah                                                                    

 Print level on unit LUPRI =   2 is   0
 Print level on unit LUW4  =   2 is   5

@    Restricted, closed shell Hartree-Fock calculation.

@    Time-dependent Hartree-Fock calculation (random phase approximation).
 Fock matrices are calculated directly and in parallel without use of integrals on disk.

 Initial molecular orbitals are obtained according to
 ".MOSTART EWMO  " input option

     Wave function specification
     ============================
@    Wave function type        --- HF ---
@    Number of closed shell electrons          88
@    Number of electrons in active shells       0
@    Total charge of the molecule               0

@    Spin multiplicity and 2 M_S                1         0
@    Total number of symmetries                 1 (point group: C1 )
@    Reference state symmetry                   1 (irrep name : A  )

     Orbital specifications
     ======================
@    Abelian symmetry species          All |    1
@                                          |  A  
                                       --- |  ---
@    Occupied SCF orbitals              44 |   44
@    Secondary orbitals               1366 | 1366
@    Total number of orbitals         1410 | 1410
@    Number of basis functions        1420 | 1420

     Optimization information
     ========================
@    Number of configurations                 1
@    Number of orbital rotations          60104
     ------------------------------------------
@    Total number of variables            60105

     Maximum number of Fock   iterations      0
     Maximum number of DIIS   iterations     60
     Maximum number of QC-SCF iterations     60
     Threshold for SCF convergence     1.00D-05

    INFORMATION: Switched to "new" integral transformation (from 1988 ;-) )
    because more than 255 basis functions.


 ***********************************************
 ***** DIIS acceleration of SCF iterations *****
 ***********************************************

 C1-DIIS algorithm; max error vectors =    8

 Iter      Total energy        Error norm    Delta(E)  DIIS dim.
 -----------------------------------------------------------------------------
   1  Screening settings (-IFTHRS, JTDIIS, DIFDEN, times)  -10    1    T  1.92D+02  1.94D+02
@  1    -565.081036630        6.36098D+00   -5.65D+02    1
      Virial theorem: -V/T =      2.006328
@    MULPOP   C_a     0.47; C_b    -0.43; C_c    -0.40; C_d    -0.25; C_e    -0.13; C_f    -0.42; C_g    -0.21; C_h     0.03; N_a    -1.21; N_b     1.87; 
@             O_a    -1.67; O_b    -1.72; H_a     0.44; H_b     0.55; H_c     0.42; H_d     0.26; H_e     0.34; H_f     0.30; H_g     0.29; H_h     0.47; 
@             H_i     0.53; H_j     0.47; 
   1  Level shift: doubly occupied orbital energies shifted by -2.00D-01
 -----------------------------------------------------------------------------
   2  Screening settings (-IFTHRS, JTDIIS, DIFDEN, times)  -10    2    T  1.93D+02  1.93D+02
@  2    -567.024326455        2.88044D+00   -1.94D+00    2
      Virial theorem: -V/T =      2.001632
@    MULPOP   C_a    -0.09; C_b    -0.55; C_c    -0.40; C_d    -0.36; C_e    -0.27; C_f    -0.41; C_g    -0.41; C_h    -0.59; N_a    -0.93; N_b     0.14; 
@             O_a    -0.33; O_b    -0.22; H_a     0.50; H_b     0.50; H_c     0.45; H_d     0.37; H_e     0.37; H_f     0.38; H_g     0.34; H_h     0.41; 
@             H_i     0.53; H_j     0.54; 
   2  Level shift: doubly occupied orbital energies shifted by -1.00D-01
 -----------------------------------------------------------------------------
   3  Screening settings (-IFTHRS, JTDIIS, DIFDEN, times)  -10    3    T  1.89D+02  1.89D+02
@  3    -567.400554920        7.51769D-01   -3.76D-01    3
      Virial theorem: -V/T =      2.001072
@    MULPOP   C_a    -0.07; C_b    -0.51; C_c    -0.33; C_d    -0.32; C_e    -0.21; C_f    -0.37; C_g    -0.35; C_h    -0.34; N_a    -0.80; N_b     0.77; 
@             O_a    -0.65; O_b    -0.66; H_a     0.47; H_b     0.42; H_c     0.38; H_d     0.30; H_e     0.30; H_f     0.35; H_g     0.28; H_h     0.36; 
@             H_i     0.48; H_j     0.51; 
   3  Level shift: doubly occupied orbital energies shifted by -5.00D-02
 -----------------------------------------------------------------------------
   4  Screening settings (-IFTHRS, JTDIIS, DIFDEN, times)  -10    4    T  1.83D+02  1.85D+02
@  4    -567.436059607        2.29840D-01   -3.55D-02    4
      Virial theorem: -V/T =      2.002997
@    MULPOP   C_a    -0.03; C_b    -0.49; C_c    -0.29; C_d    -0.28; C_e    -0.14; C_f    -0.35; C_g    -0.31; C_h    -0.41; N_a    -0.73; N_b     0.64; 
@             O_a    -0.61; O_b    -0.57; H_a     0.44; H_b     0.38; H_c     0.34; H_d     0.26; H_e     0.26; H_f     0.31; H_g     0.24; H_h     0.34; 
@             H_i     0.47; H_j     0.53; 
   4  Level shift: doubly occupied orbital energies shifted by -2.50D-02
 -----------------------------------------------------------------------------
   5  Screening settings (-IFTHRS, JTDIIS, DIFDEN, times)  -10    5    T  1.80D+02  1.82D+02
@  5    -567.442587881        8.99543D-02   -6.53D-03    5
      Virial theorem: -V/T =      2.002383
@    MULPOP   C_a    -0.05; C_b    -0.49; C_c    -0.31; C_d    -0.29; C_e    -0.16; C_f    -0.36; C_g    -0.34; C_h    -0.39; N_a    -0.73; N_b     0.67; 
@             O_a    -0.60; O_b    -0.59; H_a     0.45; H_b     0.39; H_c     0.34; H_d     0.26; H_e     0.28; H_f     0.32; H_g     0.24; H_h     0.34; 
@             H_i     0.48; H_j     0.53; 
   5  Level shift: doubly occupied orbital energies shifted by -1.25D-02
 -----------------------------------------------------------------------------
   6  Screening settings (-IFTHRS, JTDIIS, DIFDEN, times)  -14    6    F  2.08D+02  2.09D+02
@  6    -567.444130523        4.13673D-02   -1.54D-03    6
      Virial theorem: -V/T =      2.002236
@    MULPOP   C_a    -0.06; C_b    -0.49; C_c    -0.32; C_d    -0.28; C_e    -0.15; C_f    -0.36; C_g    -0.33; C_h    -0.40; N_a    -0.74; N_b     0.67; 
@             O_a    -0.60; O_b    -0.58; H_a     0.45; H_b     0.39; H_c     0.34; H_d     0.27; H_e     0.28; H_f     0.32; H_g     0.24; H_h     0.34; 
@             H_i     0.48; H_j     0.54; 
 -----------------------------------------------------------------------------
   7  Screening settings (-IFTHRS, JTDIIS, DIFDEN, times)  -14    7    T  2.00D+02  2.01D+02
@  7    -567.444515120        2.00200D-02   -3.85D-04    7
      Virial theorem: -V/T =      2.002287
@    MULPOP   C_a    -0.06; C_b    -0.49; C_c    -0.32; C_d    -0.28; C_e    -0.15; C_f    -0.36; C_g    -0.34; C_h    -0.39; N_a    -0.74; N_b     0.67; 
@             O_a    -0.60; O_b    -0.59; H_a     0.45; H_b     0.39; H_c     0.34; H_d     0.26; H_e     0.28; H_f     0.32; H_g     0.24; H_h     0.34; 
@             H_i     0.48; H_j     0.54; 
 -----------------------------------------------------------------------------
   8  Screening settings (-IFTHRS, JTDIIS, DIFDEN, times)  -14    8    T  2.00D+02  2.01D+02
@  8    -567.444595502        8.02966D-03   -8.04D-05    8
      Virial theorem: -V/T =      2.002280
@    MULPOP   C_a    -0.06; C_b    -0.49; C_c    -0.32; C_d    -0.28; C_e    -0.15; C_f    -0.36; C_g    -0.34; C_h    -0.39; N_a    -0.74; N_b     0.67; 
@             O_a    -0.60; O_b    -0.58; H_a     0.45; H_b     0.39; H_c     0.34; H_d     0.26; H_e     0.28; H_f     0.32; H_g     0.24; H_h     0.34; 
@             H_i     0.48; H_j     0.54; 
 -----------------------------------------------------------------------------
   9  Screening settings (-IFTHRS, JTDIIS, DIFDEN, times)  -14    9    T  1.99D+02  1.99D+02
@  9    -567.444607258        2.73484D-03   -1.18D-05    8
      Virial theorem: -V/T =      2.002269
@    MULPOP   C_a    -0.06; C_b    -0.49; C_c    -0.32; C_d    -0.28; C_e    -0.15; C_f    -0.36; C_g    -0.34; C_h    -0.39; N_a    -0.74; N_b     0.67; 
@             O_a    -0.60; O_b    -0.58; H_a     0.45; H_b     0.39; H_c     0.34; H_d     0.26; H_e     0.27; H_f     0.32; H_g     0.24; H_h     0.34; 
@             H_i     0.48; H_j     0.54; 
 -----------------------------------------------------------------------------
  10  Screening settings (-IFTHRS, JTDIIS, DIFDEN, times)  -14   10    T  1.95D+02  1.96D+02
@ 10    -567.444609217        1.32972D-03   -1.96D-06    8
      Virial theorem: -V/T =      2.002271
@    MULPOP   C_a    -0.06; C_b    -0.49; C_c    -0.32; C_d    -0.28; C_e    -0.15; C_f    -0.36; C_g    -0.34; C_h    -0.39; N_a    -0.74; N_b     0.67; 
@             O_a    -0.60; O_b    -0.58; H_a     0.45; H_b     0.39; H_c     0.34; H_d     0.26; H_e     0.27; H_f     0.32; H_g     0.24; H_h     0.34; 
@             H_i     0.48; H_j     0.54; 
 -----------------------------------------------------------------------------
  11  Screening settings (-IFTHRS, JTDIIS, DIFDEN, times)  -14   11    T  1.94D+02  1.95D+02
@ 11    -567.444609740        7.51168D-04   -5.23D-07    8
      Virial theorem: -V/T =      2.002271
@    MULPOP   C_a    -0.06; C_b    -0.49; C_c    -0.32; C_d    -0.28; C_e    -0.15; C_f    -0.36; C_g    -0.34; C_h    -0.39; N_a    -0.74; N_b     0.67; 
@             O_a    -0.60; O_b    -0.58; H_a     0.45; H_b     0.39; H_c     0.34; H_d     0.26; H_e     0.27; H_f     0.32; H_g     0.24; H_h     0.34; 
@             H_i     0.48; H_j     0.54; 
 -----------------------------------------------------------------------------
  12  Screening settings (-IFTHRS, JTDIIS, DIFDEN, times)  -14   12    T  1.94D+02  1.95D+02
@ 12    -567.444609909        2.24117D-04   -1.69D-07    8
      Virial theorem: -V/T =      2.002270
@    MULPOP   C_a    -0.06; C_b    -0.49; C_c    -0.32; C_d    -0.28; C_e    -0.15; C_f    -0.36; C_g    -0.34; C_h    -0.39; N_a    -0.74; N_b     0.67; 
@             O_a    -0.60; O_b    -0.58; H_a     0.45; H_b     0.39; H_c     0.34; H_d     0.26; H_e     0.27; H_f     0.32; H_g     0.24; H_h     0.34; 
@             H_i     0.48; H_j     0.54; 
 -----------------------------------------------------------------------------
  13  Screening settings (-IFTHRS, JTDIIS, DIFDEN, times)  -14   13    T  1.90D+02  1.91D+02
@ 13    -567.444609925        1.01442D-04   -1.59D-08    8
      Virial theorem: -V/T =      2.002270
@    MULPOP   C_a    -0.06; C_b    -0.49; C_c    -0.32; C_d    -0.28; C_e    -0.15; C_f    -0.36; C_g    -0.34; C_h    -0.39; N_a    -0.74; N_b     0.67; 
@             O_a    -0.60; O_b    -0.58; H_a     0.45; H_b     0.39; H_c     0.34; H_d     0.26; H_e     0.27; H_f     0.32; H_g     0.24; H_h     0.34; 
@             H_i     0.48; H_j     0.54; 
 -----------------------------------------------------------------------------
  14  Screening settings (-IFTHRS, JTDIIS, DIFDEN, times)  -14   14    T  1.88D+02  1.88D+02
@ 14    -567.444609927        2.94829D-05   -1.47D-09    8
      Virial theorem: -V/T =      2.002270
@    MULPOP   C_a    -0.06; C_b    -0.49; C_c    -0.32; C_d    -0.28; C_e    -0.15; C_f    -0.36; C_g    -0.34; C_h    -0.39; N_a    -0.74; N_b     0.67; 
@             O_a    -0.60; O_b    -0.58; H_a     0.45; H_b     0.39; H_c     0.34; H_d     0.26; H_e     0.27; H_f     0.32; H_g     0.24; H_h     0.34; 
@             H_i     0.48; H_j     0.54; 
 -----------------------------------------------------------------------------
  15  Screening settings (-IFTHRS, JTDIIS, DIFDEN, times)  -14   15    T  1.87D+02  1.87D+02
@ 15    -567.444609927        1.03827D-05   -1.52D-10    8
      Virial theorem: -V/T =      2.002270
@    MULPOP   C_a    -0.06; C_b    -0.49; C_c    -0.32; C_d    -0.28; C_e    -0.15; C_f    -0.36; C_g    -0.34; C_h    -0.39; N_a    -0.74; N_b     0.67; 
@             O_a    -0.60; O_b    -0.58; H_a     0.45; H_b     0.39; H_c     0.34; H_d     0.26; H_e     0.27; H_f     0.32; H_g     0.24; H_h     0.34; 
@             H_i     0.48; H_j     0.54; 
 -----------------------------------------------------------------------------
  16  Screening settings (-IFTHRS, JTDIIS, DIFDEN, times)  -14   16    T  1.85D+02  1.87D+02
@ 16    -567.444609927        5.09099D-06   -1.77D-11    8

@ *** DIIS converged in  16 iterations !
@     Converged SCF energy, gradient:   -567.444609926895    5.09D-06
    - total time used in SIRFCK :              0.00 seconds


 *** SCF orbital energy analysis ***

 Only the 20 lowest virtual orbital energies printed in each symmetry.

 Number of electrons :   88
 Orbital occupations :   44

 Sym       Hartree-Fock orbital energies

1 A     -20.57814764   -20.57536441   -15.82985420   -15.60405713   -11.31795017
        -11.28208044   -11.27833833   -11.27292772   -11.27182054   -11.24735584
        -11.24045191   -11.23788550    -1.57017212    -1.36785308    -1.25109621
         -1.13498277    -1.10757073    -1.06309694    -1.00251269    -0.93564125
         -0.85436100    -0.80564700    -0.78117667    -0.77653321    -0.73380825
         -0.72912302    -0.70636098    -0.68935712    -0.68841955    -0.64297389
         -0.63666636    -0.59474188    -0.56951127    -0.55976722    -0.53830097
         -0.53461810    -0.51771635    -0.48447733    -0.47467935    -0.47167956
         -0.43450245    -0.43283166    -0.35901514    -0.27023467     0.00895980
          0.01893060     0.02684712     0.03041955     0.03406847     0.03941543
          0.05035409     0.05741391     0.05962592     0.06886639     0.06949779
          0.07281282     0.07558382     0.07972349     0.08432288     0.08644092
          0.08786509     0.09072051     0.09518726     0.09673215

    E(LUMO) :     0.00895980 au (symmetry 1)
  - E(HOMO) :    -0.27023467 au (symmetry 1)
  ------------------------------------------
    gap     :     0.27919446 au

 --- Writing SIRIFC interface file

 CPU and wall time for SCF :    3404.716    3420.664


                       .-----------------------------------.
                       | --- Final results from SIRIUS --- |
                       `-----------------------------------'


@    Spin multiplicity:           1
@    Spatial symmetry:            1 ( irrep  A   in C1  )
@    Total charge of molecule:    0

@    Final HF energy:            -567.444609926895                 
@    Nuclear repulsion:           574.625117125708
@    Electronic energy:         -1142.069727052603

@    Final gradient norm:           0.000005090989

 
     Date and time (Linux)  : Thu May  8 16:32:17 2025
     Host name              : xm046                                   

File label for MO orbitals:   8May25   FOCKDIIS

 (Only coefficients > 0.0100 are printed.)

 Molecular orbitals for symmetry species 1  (A  )
 ------------------------------------------------

    Orbital        35       36       37       38       39       40       41
   2 C_a :1s     0.0000  -0.0385   0.0129   0.0000  -0.0066   0.0010   0.0000
   4 C_a :1s    -0.0000  -0.0081   0.0183  -0.0000   0.0004  -0.0018  -0.0000
   5 C_a :1s     0.0000   0.1439  -0.0126   0.0000  -0.0009   0.0099   0.0000
   6 C_a :1s     0.0000  -0.0216  -0.0148   0.0000   0.0570   0.0530   0.0000
   7 C_a :2px    0.0000   0.1525  -0.0500  -0.0000   0.0014  -0.0006   0.0000
   8 C_a :2py    0.0000   0.1061  -0.0189   0.0000   0.0113  -0.0019   0.0000
   9 C_a :2pz    0.4273   0.0000   0.0000  -0.0492   0.0000  -0.0000  -0.0256
  13 C_a :2px    0.0000   0.0131  -0.0106   0.0000  -0.0033   0.0038   0.0000
  14 C_a :2py   -0.0000   0.0117  -0.0192  -0.0000  -0.0012  -0.0031  -0.0000
  15 C_a :2pz   -0.0173   0.0000   0.0000   0.0010   0.0000  -0.0000  -0.0003
  16 C_a :2px    0.0000   0.0139   0.0105   0.0000   0.0086  -0.0031   0.0000
  17 C_a :2py    0.0000  -0.0438   0.0476  -0.0000   0.0358  -0.0193   0.0000
  18 C_a :2pz   -0.0484   0.0000   0.0000   0.0034   0.0000  -0.0000  -0.0082
  20 C_a :2py    0.0000  -0.0012  -0.0026  -0.0000  -0.0191   0.0109   0.0000
  30 C_a :3d1+  -0.0107  -0.0000  -0.0000   0.0024  -0.0000   0.0000  -0.0020
  32 C_a :3d2-   0.0000  -0.0077   0.0121   0.0000  -0.0008   0.0023   0.0000
  33 C_a :3d1-   0.0002   0.0000  -0.0000  -0.0050   0.0000   0.0000   0.0118
  35 C_a :3d1+  -0.0113  -0.0000  -0.0000   0.0059  -0.0000   0.0000  -0.0010
  37 C_a :3d2-  -0.0000   0.0056   0.0072   0.0000   0.0102   0.0060  -0.0000
  38 C_a :3d1-  -0.0102  -0.0000   0.0000   0.0049  -0.0000  -0.0000   0.0035
  39 C_a :3d0   -0.0000   0.0032   0.0058   0.0000  -0.0136  -0.0065  -0.0000
  40 C_a :3d1+   0.0143  -0.0000   0.0000   0.0094   0.0000  -0.0000   0.0001
  41 C_a :3d2+   0.0000  -0.0055   0.0191  -0.0000   0.0037  -0.0108   0.0000
  82 C_b :1s     0.0000  -0.0321   0.0624  -0.0000   0.0104  -0.0013  -0.0000
  84 C_b :1s     0.0000  -0.0112   0.0224   0.0000  -0.0042  -0.0107   0.0000
  85 C_b :1s     0.0000   0.0338   0.0069  -0.0000  -0.0396  -0.0268  -0.0000
  86 C_b :1s    -0.0000   0.0002  -0.0407  -0.0000   0.0389   0.0401  -0.0000
  87 C_b :2px    0.0000  -0.3283   0.2328  -0.0000   0.0140  -0.0004   0.0000
  88 C_b :2py   -0.0000  -0.0279  -0.0801   0.0000  -0.0217   0.0030  -0.0000
  89 C_b :2pz    0.2802   0.0000   0.0000   0.0798   0.0000   0.0000  -0.2024
  94 C_b :2py    0.0000   0.0116  -0.0141   0.0000  -0.0007  -0.0011   0.0000
  96 C_b :2px   -0.0000  -0.0348  -0.0104  -0.0000  -0.0101  -0.0295   0.0000
  97 C_b :2py    0.0000  -0.0757   0.0852   0.0000   0.0068   0.0153  -0.0000
  98 C_b :2pz   -0.0123   0.0000   0.0000  -0.0026   0.0000   0.0000  -0.0027
  99 C_b :2px   -0.0000  -0.0064   0.0019  -0.0000   0.0037   0.0112   0.0000
 100 C_b :2py    0.0000   0.0120   0.0042   0.0000   0.0038  -0.0448  -0.0000
 111 C_b :3d2+  -0.0000   0.0140  -0.0084  -0.0000   0.0006  -0.0001  -0.0000
 115 C_b :3d1+   0.0092   0.0000   0.0000  -0.0011   0.0000  -0.0000  -0.0102
 116 C_b :3d2+   0.0000  -0.0255   0.0413   0.0000  -0.0044  -0.0003   0.0000
 117 C_b :3d2-  -0.0000  -0.0231   0.0021  -0.0000   0.0232   0.0142  -0.0000
 120 C_b :3d1+  -0.0041  -0.0000   0.0000  -0.0180  -0.0000   0.0000  -0.0033
 121 C_b :3d2+  -0.0000   0.0067   0.0236   0.0000  -0.0264  -0.0098   0.0000
 136 C_b :4f3-   0.0000   0.0019  -0.0108  -0.0000   0.0008  -0.0023   0.0000
 142 C_b :4f3+  -0.0000  -0.0131   0.0121   0.0000  -0.0008   0.0004  -0.0000
 162 C_c :1s    -0.0000  -0.0377   0.0616  -0.0000  -0.0108  -0.0002   0.0000
 164 C_c :1s     0.0000  -0.0169   0.0485   0.0000   0.0079   0.0210  -0.0000
 165 C_c :1s     0.0000  -0.0345  -0.0115  -0.0000  -0.0251   0.0924   0.0000
 166 C_c :1s    -0.0000  -0.0101  -0.0132  -0.0000  -0.0046  -0.1086  -0.0000
 167 C_c :2px   -0.0000   0.3112  -0.3197  -0.0000  -0.0100  -0.0001   0.0000
 168 C_c :2py    0.0000   0.0083  -0.0371  -0.0000   0.0332  -0.0029   0.0000
 169 C_c :2pz    0.1496   0.0000  -0.0000   0.2320  -0.0000   0.0000  -0.2879
 173 C_c :2px   -0.0000   0.0072  -0.0134  -0.0000  -0.0026  -0.0105  -0.0000
 174 C_c :2py   -0.0000  -0.0116  -0.0107  -0.0000  -0.0146  -0.0078  -0.0000
 176 C_c :2px   -0.0000   0.0263  -0.0580  -0.0000  -0.0277  -0.0183   0.0000
 177 C_c :2py    0.0000   0.0173   0.0459  -0.0000   0.0357   0.0035  -0.0000
 179 C_c :2px   -0.0000   0.0067  -0.0069   0.0000   0.0309  -0.0033   0.0000
 180 C_c :2py   -0.0000   0.0063   0.0093  -0.0000  -0.0523   0.0160   0.0000
 181 C_c :2pz    0.0037   0.0000  -0.0000  -0.0017  -0.0000   0.0000  -0.0102
 187 C_c :3d2-  -0.0000   0.0075  -0.0116   0.0000  -0.0015   0.0007   0.0000
 191 C_c :3d2+   0.0000   0.0126  -0.0149  -0.0000  -0.0004  -0.0001   0.0000
 192 C_c :3d2-  -0.0000  -0.0096   0.0306   0.0000  -0.0012   0.0017   0.0000
 195 C_c :3d1+  -0.0085   0.0000   0.0000  -0.0047   0.0000  -0.0000   0.0104
 196 C_c :3d2+  -0.0000  -0.0407   0.0512  -0.0000  -0.0088  -0.0017   0.0000
 197 C_c :3d2-   0.0000  -0.0007   0.0097   0.0000   0.0084   0.0267  -0.0000
 198 C_c :3d1-  -0.0181  -0.0000  -0.0000   0.0169  -0.0000  -0.0000   0.0160
 199 C_c :3d0    0.0000  -0.0053   0.0085   0.0000  -0.0069   0.0122  -0.0000
 200 C_c :3d1+   0.0003   0.0000  -0.0000   0.0112   0.0000   0.0000  -0.0009
 201 C_c :3d2+  -0.0000  -0.0379   0.0254   0.0000  -0.0477  -0.0022   0.0000
 216 C_c :4f3-  -0.0000   0.0026  -0.0108   0.0000  -0.0040  -0.0021   0.0000
 222 C_c :4f3+   0.0000   0.0142   0.0003   0.0000   0.0028   0.0008  -0.0000
 242 C_d :1s     0.0000   0.0114   0.0594   0.0000   0.0178  -0.0066   0.0000
 244 C_d :1s     0.0000  -0.0147   0.0602  -0.0000   0.0050   0.0207   0.0000
 245 C_d :1s     0.0000  -0.0469  -0.0378  -0.0000   0.0017   0.0037   0.0000
 246 C_d :1s    -0.0000   0.0664   0.0129   0.0000   0.0313  -0.0471  -0.0000
 247 C_d :2px    0.0000  -0.0462   0.4113   0.0000   0.0326  -0.0112  -0.0000
 248 C_d :2py   -0.0000  -0.1322   0.0086   0.0000  -0.0476   0.0098   0.0000
 249 C_d :2pz    0.0941  -0.0000  -0.0000   0.3211  -0.0000   0.0000  -0.2454
 253 C_d :2px    0.0000  -0.0022   0.0233   0.0000   0.0014   0.0106  -0.0000
 254 C_d :2py   -0.0000  -0.0198   0.0046  -0.0000  -0.0064  -0.0198   0.0000
 256 C_d :2px    0.0000  -0.0618   0.0676   0.0000   0.0131  -0.0143  -0.0000
 257 C_d :2py   -0.0000   0.1271   0.0085   0.0000   0.0160  -0.0156   0.0000
 258 C_d :2pz   -0.0104  -0.0000  -0.0000  -0.0042  -0.0000   0.0000   0.0006
 259 C_d :2px   -0.0000  -0.0002   0.0037  -0.0000  -0.0025   0.0159  -0.0000
 260 C_d :2py    0.0000   0.0051   0.0065   0.0000   0.0103  -0.0212  -0.0000
 267 C_d :3d2-  -0.0000   0.0018  -0.0141  -0.0000  -0.0020   0.0000   0.0000
 271 C_d :3d2+   0.0000   0.0036  -0.0165   0.0000   0.0014   0.0005  -0.0000
 272 C_d :3d2-  -0.0000  -0.0246   0.0238  -0.0000  -0.0030  -0.0047   0.0000
 273 C_d :3d1-  -0.0057  -0.0000   0.0000   0.0104  -0.0000  -0.0000  -0.0001
 274 C_d :3d0   -0.0000  -0.0013   0.0114  -0.0000   0.0008   0.0019   0.0000
 275 C_d :3d1+   0.0028  -0.0000  -0.0000   0.0090  -0.0000   0.0000  -0.0114
 276 C_d :3d2+   0.0000  -0.0005   0.0539   0.0000   0.0177   0.0201   0.0000
 277 C_d :3d2-  -0.0000  -0.0258  -0.0024  -0.0000   0.0137   0.0038   0.0000
 278 C_d :3d1-  -0.0166   0.0000   0.0000   0.0155   0.0000   0.0000   0.0236
 280 C_d :3d1+  -0.0022   0.0000  -0.0000  -0.0144  -0.0000  -0.0000  -0.0087
 281 C_d :3d2+   0.0000   0.0041   0.0131   0.0000  -0.0102   0.0212   0.0000
 296 C_d :4f3-  -0.0000  -0.0223   0.0064  -0.0000  -0.0039  -0.0029  -0.0000
 302 C_d :4f3+   0.0000   0.0161   0.0060   0.0000   0.0057   0.0006  -0.0000
 322 C_e :1s     0.0000   0.0115   0.0899   0.0000  -0.0242  -0.0080   0.0000
 324 C_e :1s     0.0000   0.0123   0.0452   0.0000   0.0327  -0.0096   0.0000
 325 C_e :1s    -0.0000   0.0496  -0.0283  -0.0000  -0.0228  -0.0042   0.0000
 326 C_e :1s     0.0000  -0.0355  -0.0236  -0.0000   0.0860   0.0022   0.0000
 327 C_e :2px    0.0000  -0.1675  -0.3769   0.0000  -0.0184   0.0231   0.0000
 328 C_e :2py    0.0000  -0.1545   0.0290   0.0000   0.0819   0.0096  -0.0000
 329 C_e :2pz    0.0500  -0.0000   0.0000   0.3790  -0.0000   0.0000  -0.0162
 333 C_e :2px    0.0000  -0.0060  -0.0176   0.0000  -0.0049   0.0185  -0.0000
 334 C_e :2py   -0.0000  -0.0100  -0.0023  -0.0000  -0.0252   0.0002  -0.0000
 336 C_e :2px    0.0000  -0.0608  -0.0293   0.0000  -0.0146   0.0198   0.0000
 337 C_e :2py   -0.0000   0.1055  -0.0425   0.0000  -0.0673  -0.0069  -0.0000
 339 C_e :2px    0.0000  -0.0160   0.0043  -0.0000  -0.0221   0.0077  -0.0000
 340 C_e :2py    0.0000   0.0207  -0.0067   0.0000  -0.0473   0.0293  -0.0000
 341 C_e :2pz    0.0005  -0.0000   0.0000   0.0067   0.0000   0.0000   0.0120
 347 C_e :3d2-   0.0000  -0.0057  -0.0131   0.0000  -0.0021   0.0019  -0.0000
 351 C_e :3d2+   0.0000  -0.0088  -0.0144   0.0000   0.0004   0.0014   0.0000
 352 C_e :3d2-   0.0000   0.0324   0.0217   0.0000   0.0127   0.0181  -0.0000
 354 C_e :3d0    0.0000   0.0023   0.0104   0.0000  -0.0006  -0.0011  -0.0000
 355 C_e :3d1+   0.0020   0.0000  -0.0000  -0.0129  -0.0000   0.0000  -0.0003
 356 C_e :3d2+   0.0000   0.0198   0.0521   0.0000   0.0061   0.0213  -0.0000
 357 C_e :3d2-   0.0000   0.0311   0.0058  -0.0000   0.0490   0.0223   0.0000
 358 C_e :3d1-  -0.0117  -0.0000   0.0000   0.0067   0.0000   0.0000   0.0190
 359 C_e :3d0   -0.0000   0.0024   0.0071   0.0000  -0.0201  -0.0034  -0.0000
 360 C_e :3d1+   0.0121  -0.0000   0.0000   0.0056   0.0000  -0.0000  -0.0062
 361 C_e :3d2+  -0.0000   0.0217   0.0225  -0.0000  -0.0261  -0.0042  -0.0000
 376 C_e :4f3-   0.0000  -0.0213  -0.0029  -0.0000   0.0058  -0.0011   0.0000
 382 C_e :4f3+   0.0000   0.0116  -0.0078   0.0000  -0.0009  -0.0041  -0.0000
 402 C_f :1s    -0.0000   0.0264   0.0267  -0.0000   0.0362  -0.0067   0.0000
 404 C_f :1s     0.0000   0.0229   0.0405   0.0000  -0.0092  -0.0088  -0.0000
 405 C_f :1s    -0.0000  -0.0136   0.0018  -0.0000  -0.0269  -0.1057   0.0000
 406 C_f :1s     0.0000  -0.0100  -0.0234   0.0000   0.1361   0.1453   0.0000
 407 C_f :2px    0.0000   0.3666   0.2321   0.0000   0.0502  -0.0602   0.0000
 408 C_f :2py   -0.0000   0.0787   0.0512  -0.0000  -0.1051   0.0024   0.0000
 409 C_f :2pz    0.0327  -0.0000   0.0000   0.3892   0.0000  -0.0000   0.1428
 413 C_f :2px    0.0000   0.0146   0.0104   0.0000   0.0040  -0.0016   0.0000
 414 C_f :2py   -0.0000  -0.0074   0.0156  -0.0000  -0.0260   0.0101  -0.0000
 416 C_f :2px   -0.0000   0.0289   0.0292  -0.0000   0.0327  -0.0170   0.0000
 417 C_f :2py    0.0000   0.0153  -0.0678   0.0000  -0.0642   0.0385   0.0000
 419 C_f :2px    0.0000   0.0149  -0.0008   0.0000   0.0410  -0.0079   0.0000
 420 C_f :2py   -0.0000  -0.0337   0.0198  -0.0000  -0.0983   0.0481   0.0000
 427 C_f :3d2-  -0.0000  -0.0109  -0.0105   0.0000  -0.0043   0.0015  -0.0000
 431 C_f :3d2+  -0.0000  -0.0143  -0.0107  -0.0000   0.0032   0.0022   0.0000
 432 C_f :3d2-   0.0000   0.0230   0.0325  -0.0000  -0.0172   0.0169  -0.0000
 435 C_f :3d1+  -0.0000  -0.0000   0.0000   0.0123   0.0000  -0.0000   0.0057
 436 C_f :3d2+   0.0000   0.0332   0.0363   0.0000   0.0081  -0.0084   0.0000
 437 C_f :3d2-  -0.0000   0.0153   0.0160  -0.0000   0.0258   0.0090   0.0000
 438 C_f :3d1-  -0.0133  -0.0000   0.0000   0.0016   0.0000  -0.0000   0.0238
 440 C_f :3d1+  -0.0051   0.0000  -0.0000  -0.0100  -0.0000   0.0000  -0.0092
 441 C_f :3d2+  -0.0000   0.0219   0.0307  -0.0000  -0.0778  -0.0498  -0.0000
 456 C_f :4f3-   0.0000   0.0081   0.0110   0.0000  -0.0020   0.0020  -0.0000
 482 C_g :1s     0.0000   0.0544   0.0671   0.0000  -0.0282   0.0500  -0.0000
 484 C_g :1s    -0.0000   0.0113   0.0130  -0.0000  -0.0090   0.0594   0.0000
 485 C_g :1s     0.0000  -0.0704  -0.0016   0.0000   0.0437   0.0566   0.0000
 486 C_g :1s    -0.0000  -0.0463  -0.0298  -0.0000  -0.0438  -0.0622  -0.0000
 487 C_g :2px   -0.0000  -0.3299  -0.1625  -0.0000  -0.0222   0.0743   0.0000
 488 C_g :2py   -0.0000  -0.0326   0.0537  -0.0000   0.1564  -0.0387  -0.0000
 489 C_g :2pz    0.0162   0.0000   0.0000   0.3003   0.0000  -0.0000   0.2705
 493 C_g :2px   -0.0000  -0.0147  -0.0112  -0.0000   0.0260  -0.0204   0.0000
 494 C_g :2py   -0.0000   0.0073   0.0071  -0.0000  -0.0119  -0.0121  -0.0000
 496 C_g :2px   -0.0000  -0.0308   0.0234  -0.0000   0.0577  -0.0428   0.0000
 497 C_g :2py    0.0000  -0.0339  -0.0494   0.0000   0.0335   0.0862   0.0000
 498 C_g :2pz   -0.0033  -0.0000   0.0000  -0.0071   0.0000  -0.0000  -0.0133
 499 C_g :2px    0.0000  -0.0068  -0.0047  -0.0000   0.0382   0.0621   0.0000
 500 C_g :2py   -0.0000   0.0409  -0.0076   0.0000  -0.0488  -0.1004  -0.0000
 501 C_g :2pz   -0.0008   0.0000   0.0000   0.0001   0.0000  -0.0000  -0.0117
 511 C_g :3d2+  -0.0000  -0.0127  -0.0040  -0.0000   0.0033  -0.0020  -0.0000
 516 C_g :3d2+   0.0000   0.0172   0.0266  -0.0000   0.0135  -0.0086   0.0000
 517 C_g :3d2-   0.0000   0.0103  -0.0024   0.0000   0.0605   0.0208   0.0000
 518 C_g :3d1-  -0.0048  -0.0000   0.0000   0.0005   0.0000   0.0000   0.0135
 519 C_g :3d0    0.0000   0.0022   0.0043  -0.0000   0.0168   0.0072   0.0000
 520 C_g :3d1+   0.0106   0.0000  -0.0000   0.0157   0.0000   0.0000  -0.0052
 521 C_g :3d2+   0.0000  -0.0088   0.0236   0.0000  -0.0260   0.0073   0.0000
 542 C_g :4f3+   0.0000  -0.0081  -0.0085   0.0000   0.0070   0.0256   0.0000
 562 C_h :1s     0.0000   0.0108  -0.0142   0.0000   0.1068   0.0127   0.0000
 564 C_h :1s     0.0000   0.0078   0.0135   0.0000   0.0293  -0.0407   0.0000
 565 C_h :1s     0.0000  -0.0707   0.0142  -0.0000  -0.0164   0.1338   0.0000
 566 C_h :1s    -0.0000   0.0586   0.0355  -0.0000  -0.3280  -0.0612   0.0000
 567 C_h :2px   -0.0000   0.1046   0.0143  -0.0000   0.2130   0.1517   0.0000
 568 C_h :2py   -0.0000   0.1254   0.0259   0.0000  -0.2375   0.0042  -0.0000
 569 C_h :2pz    0.0090   0.0000  -0.0000   0.2221  -0.0000  -0.0000   0.2600
 573 C_h :2px    0.0000   0.0126   0.0026   0.0000  -0.0030  -0.0092   0.0000
 574 C_h :2py   -0.0000   0.0006   0.0047  -0.0000   0.0387  -0.0635  -0.0000
 576 C_h :2px   -0.0000   0.0204   0.0039   0.0000  -0.0412  -0.0486   0.0000
 577 C_h :2py   -0.0000  -0.0304  -0.0341  -0.0000   0.0184  -0.1111  -0.0000
 578 C_h :2pz   -0.0034   0.0000   0.0000  -0.0056   0.0000   0.0000   0.0111
 579 C_h :2px   -0.0000   0.0133   0.0011   0.0000  -0.0121  -0.0292   0.0000
 580 C_h :2py   -0.0000  -0.0055   0.0184  -0.0000  -0.0687   0.0891   0.0000
 581 C_h :2pz    0.0014   0.0000  -0.0000   0.0030  -0.0000   0.0000   0.0146
 587 C_h :3d2-  -0.0000  -0.0064  -0.0025  -0.0000  -0.0161  -0.0035  -0.0000
 592 C_h :3d2-   0.0000   0.0044   0.0092   0.0000   0.0010  -0.0105   0.0000
 593 C_h :3d1-  -0.0005   0.0000  -0.0000   0.0095  -0.0000   0.0000   0.0157
 594 C_h :3d0   -0.0000   0.0052   0.0015  -0.0000  -0.0035  -0.0104  -0.0000
 596 C_h :3d2+   0.0000  -0.0066  -0.0022   0.0000   0.0294  -0.0238   0.0000
 597 C_h :3d2-   0.0000   0.0045   0.0048   0.0000   0.0470   0.0379   0.0000
 598 C_h :3d1-  -0.0032  -0.0000   0.0000  -0.0010   0.0000  -0.0000   0.0217
 600 C_h :3d1+  -0.0045  -0.0000   0.0000  -0.0120   0.0000  -0.0000   0.0071
 601 C_h :3d2+   0.0000  -0.0066  -0.0010   0.0000   0.0404  -0.0409   0.0000
 609 C_h :4f3-  -0.0000  -0.0010  -0.0002  -0.0000  -0.0110   0.0077   0.0000
 615 C_h :4f3+  -0.0000  -0.0015  -0.0016  -0.0000  -0.0011  -0.0132   0.0000
 616 C_h :4f3-  -0.0000   0.0057   0.0041  -0.0000  -0.0043   0.0136   0.0000
 622 C_h :4f3+  -0.0000  -0.0069  -0.0079   0.0000   0.0100   0.0034  -0.0000
 642 N_a :1s    -0.0000  -0.0295   0.0218   0.0000   0.0032  -0.0003   0.0000
 645 N_a :1s    -0.0000  -0.0058   0.0034   0.0000  -0.0209   0.0023   0.0000
 646 N_a :1s    -0.0000  -0.0011   0.0120  -0.0000  -0.0051  -0.0114   0.0000
 647 N_a :2px   -0.0000  -0.0600   0.0209   0.0000   0.0018  -0.0001  -0.0000
 648 N_a :2py   -0.0000   0.0227  -0.0343  -0.0000  -0.0070   0.0008  -0.0000
 649 N_a :2pz    0.6429  -0.0000  -0.0000  -0.2041  -0.0000  -0.0000   0.2326
 658 N_a :2pz    0.0213  -0.0000  -0.0000  -0.0071  -0.0000  -0.0000   0.0131
 661 N_a :2pz    0.0151  -0.0000  -0.0000  -0.0056  -0.0000  -0.0000   0.0057
 722 N_b :1s    -0.0000   0.0204   0.0119  -0.0000   0.0258   0.0059  -0.0000
 725 N_b :1s    -0.0000   0.0034  -0.0004  -0.0000   0.1059  -0.0160   0.0000
 726 N_b :1s     0.0000  -0.0162  -0.0142   0.0000   0.1828   0.0737   0.0000
 727 N_b :2px    0.0000  -0.0533  -0.0100   0.0000  -0.2195   0.0018  -0.0000
 728 N_b :2py   -0.0000   0.0318   0.0194  -0.0000   0.1734   0.1187   0.0000
 729 N_b :2pz   -0.0029  -0.0000  -0.0000  -0.0402  -0.0000   0.0000  -0.0307
 733 N_b :2px   -0.0000   0.0025   0.0005  -0.0000   0.0054   0.0183   0.0000
 734 N_b :2py   -0.0000   0.0017   0.0010   0.0000  -0.0155   0.0035   0.0000
 736 N_b :2px   -0.0000   0.0102   0.0165  -0.0000  -0.0859   0.0199   0.0000
 737 N_b :2py    0.0000  -0.0006  -0.0060   0.0000   0.0711   0.0519   0.0000
 738 N_b :2pz    0.0018   0.0000  -0.0000   0.0148  -0.0000   0.0000   0.0117
 739 N_b :2px   -0.0000   0.0066   0.0058  -0.0000  -0.0610  -0.0426  -0.0000
 740 N_b :2py    0.0000   0.0022  -0.0138   0.0000   0.0769  -0.0508  -0.0000
 747 N_b :3d2-   0.0000   0.0002   0.0016   0.0000  -0.0331  -0.0083   0.0000
 748 N_b :3d1-   0.0002  -0.0000   0.0000   0.0039   0.0000  -0.0000   0.0179
 751 N_b :3d2+  -0.0000  -0.0007   0.0017  -0.0000  -0.0053   0.0250  -0.0000
 752 N_b :3d2-   0.0000  -0.0025  -0.0003   0.0000  -0.0368  -0.0082   0.0000
 753 N_b :3d1-   0.0002  -0.0000   0.0000   0.0049   0.0000  -0.0000   0.0218
 756 N_b :3d2+  -0.0000  -0.0014  -0.0005  -0.0000   0.0179  -0.0160  -0.0000
 757 N_b :3d2-   0.0000  -0.0054  -0.0029   0.0000   0.0122   0.0048   0.0000
 761 N_b :3d2+  -0.0000  -0.0080  -0.0075  -0.0000   0.0254  -0.1129  -0.0000
 802 O_a :1s    -0.0000   0.0227   0.0073  -0.0000   0.0111   0.0050  -0.0000
 805 O_a :1s     0.0000   0.0073  -0.0002   0.0000   0.0151   0.0205  -0.0000
 806 O_a :1s     0.0000   0.0074   0.0104   0.0000  -0.0373   0.1131   0.0000
 807 O_a :2px    0.0000   0.0349  -0.0058   0.0000   0.3485   0.1799   0.0000
 808 O_a :2py   -0.0000   0.0047  -0.0104  -0.0000  -0.2578  -0.7837  -0.0000
 809 O_a :2pz   -0.0035  -0.0000   0.0000  -0.0677   0.0000   0.0000   0.3233
 816 O_a :2px    0.0000   0.0044   0.0020  -0.0000   0.0230   0.0395   0.0000
 817 O_a :2py   -0.0000  -0.0012   0.0004  -0.0000  -0.0455  -0.0988  -0.0000
 818 O_a :2pz   -0.0006  -0.0000   0.0000  -0.0083   0.0000  -0.0000   0.0337
 819 O_a :2px    0.0000  -0.0008  -0.0024   0.0000   0.0267  -0.0040   0.0000
 820 O_a :2py   -0.0000   0.0021   0.0023  -0.0000  -0.0284  -0.0490  -0.0000
 821 O_a :2pz    0.0011  -0.0000   0.0000  -0.0014   0.0000   0.0000   0.0174
 832 O_a :3d2-   0.0000  -0.0007   0.0002   0.0000   0.0008   0.0187  -0.0000
 835 O_a :3d1+   0.0002   0.0000  -0.0000   0.0025  -0.0000  -0.0000  -0.0110
 836 O_a :3d2+  -0.0000  -0.0003   0.0006  -0.0000  -0.0101  -0.0104  -0.0000
 837 O_a :3d2-   0.0000  -0.0006  -0.0005   0.0000   0.0105   0.0228   0.0000
 841 O_a :3d2+  -0.0000  -0.0012   0.0001  -0.0000  -0.0131  -0.0154  -0.0000
 885 O_b :1s    -0.0000  -0.0002  -0.0025   0.0000   0.0356  -0.0029  -0.0000
 886 O_b :1s    -0.0000  -0.0005  -0.0054   0.0000   0.0310  -0.1191  -0.0000
 887 O_b :2px    0.0000  -0.0588  -0.0787   0.0000   0.6574  -0.5217  -0.0000
 888 O_b :2py   -0.0000   0.0129   0.0124   0.0000  -0.3652  -0.0654  -0.0000
 889 O_b :2pz   -0.0040  -0.0000   0.0000  -0.0864   0.0000  -0.0000  -0.4909
 896 O_b :2px    0.0000  -0.0054  -0.0093   0.0000   0.0800  -0.0488  -0.0000
 897 O_b :2py   -0.0000   0.0025   0.0011   0.0000  -0.0284   0.0223  -0.0000
 898 O_b :2pz   -0.0010  -0.0000   0.0000  -0.0089   0.0000  -0.0000  -0.0514
 899 O_b :2px    0.0000  -0.0025  -0.0072   0.0000   0.0479  -0.0357  -0.0000
 900 O_b :2py   -0.0000   0.0003   0.0012   0.0000  -0.0172  -0.0130  -0.0000
 901 O_b :2pz    0.0005  -0.0000   0.0000  -0.0031   0.0000  -0.0000  -0.0255
 912 O_b :3d2-   0.0000  -0.0012  -0.0021   0.0000   0.0112  -0.0139  -0.0000
 913 O_b :3d1-  -0.0003  -0.0000   0.0000  -0.0033   0.0000  -0.0000  -0.0165
 916 O_b :3d2+   0.0000  -0.0016  -0.0012   0.0000   0.0136  -0.0013   0.0000
 917 O_b :3d2-   0.0000  -0.0014  -0.0028   0.0000   0.0199  -0.0116  -0.0000
 918 O_b :3d1-  -0.0002  -0.0000   0.0000  -0.0031   0.0000  -0.0000  -0.0141
 921 O_b :3d2+   0.0000  -0.0014  -0.0010   0.0000   0.0173  -0.0050   0.0000
 961 H_a :1s    -0.0000   0.2026  -0.0809   0.0000  -0.0017  -0.0004  -0.0000
 963 H_a :1s    -0.0000  -0.0522   0.0103  -0.0000   0.0010  -0.0039  -0.0000
 964 H_a :1s    -0.0000  -0.0598  -0.0273   0.0000  -0.0676   0.0008  -0.0000
 965 H_a :1s    -0.0000   0.0014   0.0020  -0.0000   0.0141  -0.0013   0.0000
1007 H_b :1s     0.0000   0.3763  -0.2317   0.0000  -0.0043  -0.0011  -0.0000
1008 H_b :1s    -0.0000  -0.0120   0.0074  -0.0000   0.0004  -0.0002  -0.0000
1009 H_b :1s    -0.0000  -0.0659   0.0135  -0.0000   0.0102  -0.0021   0.0000
1010 H_b :1s    -0.0000  -0.1277   0.0221  -0.0000   0.0174  -0.0060   0.0000
1021 H_b :2px   -0.0000  -0.0131   0.0012  -0.0000  -0.0025  -0.0033   0.0000
1022 H_b :2py   -0.0000  -0.0126  -0.0079  -0.0000   0.0131   0.0029  -0.0000
1023 H_b :2pz   -0.0031  -0.0000  -0.0000  -0.0125  -0.0000  -0.0000  -0.0044
1053 H_c :1s    -0.0000   0.0664  -0.0156   0.0000   0.0006  -0.0003  -0.0000
1055 H_c :1s     0.0000  -0.0121   0.0019   0.0000   0.0036   0.0009   0.0000
1066 H_c :2pz    0.0143   0.0000   0.0000  -0.0058   0.0000   0.0000   0.0073
1099 H_d :1s     0.0000  -0.0248  -0.0149  -0.0000  -0.0057   0.0008   0.0000
1102 H_d :1s     0.0000  -0.0045   0.0194   0.0000  -0.0136  -0.0055   0.0000
1112 H_d :2pz    0.0178   0.0000   0.0000  -0.0081   0.0000  -0.0000   0.0090
1145 H_e :1s    -0.0000   0.3382  -0.3770   0.0000  -0.0121   0.0008  -0.0000
1146 H_e :1s     0.0000  -0.0106   0.0116   0.0000   0.0004   0.0002   0.0000
1147 H_e :1s     0.0000  -0.0355   0.0238   0.0000   0.0156   0.0033  -0.0000
1148 H_e :1s     0.0000  -0.0448   0.0997   0.0000   0.0511   0.0100  -0.0000
1149 H_e :1s     0.0000  -0.0069   0.0000   0.0000  -0.0205   0.0065  -0.0000
1156 H_e :2px   -0.0000  -0.0118   0.0128  -0.0000  -0.0029  -0.0005   0.0000
1159 H_e :2px   -0.0000   0.0069  -0.0113  -0.0000   0.0030   0.0034   0.0000
1160 H_e :2py   -0.0000  -0.0055  -0.0055  -0.0000  -0.0189  -0.0107   0.0000
1161 H_e :2pz    0.0025  -0.0000   0.0000  -0.0104  -0.0000  -0.0000  -0.0041
1191 H_f :1s     0.0000   0.1021  -0.4650   0.0000  -0.0109   0.0086   0.0000
1192 H_f :1s     0.0000  -0.0036   0.0147   0.0000   0.0007  -0.0001   0.0000
1193 H_f :1s    -0.0000  -0.0114   0.0549   0.0000  -0.0131  -0.0156  -0.0000
1194 H_f :1s    -0.0000  -0.0288   0.1682  -0.0000   0.0176  -0.0476  -0.0000
1195 H_f :1s     0.0000   0.0041   0.0036   0.0000   0.0147  -0.0028  -0.0000
1202 H_f :2px   -0.0000   0.0022  -0.0103   0.0000  -0.0040  -0.0025  -0.0000
1205 H_f :2px    0.0000   0.0015   0.0221   0.0000   0.0033  -0.0051  -0.0000
1206 H_f :2py   -0.0000  -0.0156   0.0013  -0.0000   0.0142  -0.0079  -0.0000
1237 H_g :1s     0.0000  -0.2389  -0.3965   0.0000  -0.0141   0.0309  -0.0000
1238 H_g :1s     0.0000   0.0076   0.0120  -0.0000   0.0009  -0.0020   0.0000
1239 H_g :1s    -0.0000   0.0199   0.0375  -0.0000  -0.0096  -0.0431   0.0000
1240 H_g :1s    -0.0000   0.0035   0.1090   0.0000  -0.0159  -0.0488  -0.0000
1241 H_g :1s    -0.0000   0.0041   0.0008  -0.0000   0.0344  -0.0162   0.0000
1248 H_g :2px    0.0000   0.0072   0.0101   0.0000   0.0044   0.0108  -0.0000
1251 H_g :2px    0.0000   0.0030  -0.0140   0.0000   0.0076   0.0027   0.0000
1252 H_g :2py   -0.0000  -0.0094   0.0005  -0.0000  -0.0403  -0.0024  -0.0000
1283 H_h :1s    -0.0000  -0.4281  -0.2931  -0.0000   0.0024   0.0633  -0.0000
1284 H_h :1s     0.0000   0.0138   0.0090   0.0000   0.0003  -0.0017   0.0000
1285 H_h :1s    -0.0000   0.0622   0.0170   0.0000   0.0033   0.0007   0.0000
1286 H_h :1s     0.0000   0.0976   0.0222   0.0000   0.0516   0.0402   0.0000
1297 H_h :2px    0.0000   0.0107   0.0006   0.0000  -0.0104   0.0061  -0.0000
1298 H_h :2py   -0.0000   0.0004   0.0003  -0.0000   0.0328   0.0089   0.0000
1329 H_i :1s    -0.0000  -0.3491  -0.1350  -0.0000  -0.0182   0.0525  -0.0000
1330 H_i :1s    -0.0000   0.0107   0.0044  -0.0000  -0.0005  -0.0000  -0.0000
1331 H_i :1s    -0.0000   0.0748   0.0067   0.0000  -0.0316  -0.0265  -0.0000
1332 H_i :1s    -0.0000   0.1518   0.0008  -0.0000  -0.0539  -0.0103  -0.0000
1333 H_i :1s     0.0000  -0.0031   0.0007   0.0000  -0.0206   0.0025  -0.0000
1341 H_i :2py    0.0000  -0.0026  -0.0025  -0.0000   0.0065   0.0136   0.0000
1343 H_i :2px    0.0000  -0.0146  -0.0002  -0.0000   0.0242  -0.0083   0.0000
1344 H_i :2py   -0.0000  -0.0106   0.0099  -0.0000  -0.0287   0.0231   0.0000
1345 H_i :2pz   -0.0075  -0.0000   0.0000  -0.0128  -0.0000  -0.0000   0.0029
1375 H_j :1s     0.0000  -0.1807  -0.0493   0.0000  -0.0819  -0.1448  -0.0000
1377 H_j :1s    -0.0000   0.0507   0.0048  -0.0000  -0.0118   0.0216  -0.0000
1378 H_j :1s    -0.0000   0.0589   0.0046  -0.0000  -0.1004  -0.0664  -0.0000
1379 H_j :1s    -0.0000   0.0020   0.0058   0.0000  -0.0233   0.0105  -0.0000
1389 H_j :2px   -0.0000   0.0043  -0.0033  -0.0000  -0.0105  -0.0270  -0.0000
1390 H_j :2py   -0.0000   0.0077   0.0031  -0.0000  -0.0052   0.0152  -0.0000
1391 H_j :2pz   -0.0053  -0.0000   0.0000  -0.0100   0.0000  -0.0000   0.0127

    Orbital        42       43       44       45       46       47       48
   2 C_a :1s     0.0000  -0.0000   0.0000   0.0191   0.0396  -0.0158  -0.0000
   4 C_a :1s     0.0000  -0.0000  -0.0000   0.0550  -0.0084   0.5974   0.0000
   5 C_a :1s     0.0000   0.0000   0.0000  -2.3134  -1.6041  -0.2283  -0.0000
   6 C_a :1s     0.0000  -0.0000   0.0000  -0.4447 -23.1771  -9.9042  -0.0000
   7 C_a :2px    0.0000   0.0000  -0.0000   0.0568   0.0417  -0.0156   0.0000
   8 C_a :2py    0.0000   0.0000  -0.0000  -0.0108   0.0151  -0.0200   0.0000
   9 C_a :2pz    0.0228  -0.1816   0.2835  -0.0000   0.0000  -0.0000   0.2562
  13 C_a :2px    0.0000   0.0000  -0.0000  -0.0310  -0.0120  -0.0848   0.0000
  14 C_a :2py    0.0000   0.0000   0.0000   0.1601  -0.0603  -0.0623  -0.0000
  16 C_a :2px    0.0000   0.0000  -0.0000   0.5260  -0.1627  -1.9034   0.0000
  17 C_a :2py    0.0000   0.0000  -0.0000   0.0784  -0.0502  -0.6602  -0.0000
  18 C_a :2pz    0.0064  -0.0009  -0.0038  -0.0000   0.0000  -0.0000   0.0741
  19 C_a :2px    0.0000   0.0000  -0.0000   0.3326   5.1383  -0.8516   0.0000
  20 C_a :2py   -0.0000   0.0000  -0.0000   5.5856   3.2632   3.2019   0.0000
  21 C_a :2pz    0.0023  -0.0044   0.0149  -0.0000   0.0000  -0.0000   0.2151
  28 C_a :3d1-  -0.0078   0.0170  -0.0164  -0.0000   0.0000  -0.0000  -0.0028
  32 C_a :3d2-   0.0000  -0.0000  -0.0000  -0.4059  -0.0672   0.1962   0.0000
  33 C_a :3d1-  -0.0102   0.0236  -0.0207   0.0000  -0.0000   0.0000   0.0278
  34 C_a :3d0   -0.0000  -0.0000  -0.0000   0.1072   0.0512   0.1454   0.0000
  36 C_a :3d2+   0.0000   0.0000  -0.0000  -0.1548   0.0675   0.2983   0.0000
  37 C_a :3d2-  -0.0000   0.0000  -0.0000  -0.7956  -0.1079   0.7577   0.0000
  38 C_a :3d1-  -0.0048   0.0125  -0.0107   0.0000  -0.0000   0.0000   0.0628
  39 C_a :3d0   -0.0000   0.0000  -0.0000   0.6637   0.1360   1.1000   0.0000
  40 C_a :3d1+  -0.0017  -0.0003   0.0032   0.0000   0.0000   0.0000  -0.0564
  41 C_a :3d2+  -0.0000   0.0000  -0.0000  -0.8962  -0.7090   0.5860   0.0000
  49 C_a :4f3-  -0.0000   0.0000  -0.0000   0.0179   0.0196  -0.0084   0.0000
  55 C_a :4f3+  -0.0000  -0.0000  -0.0000  -0.0045  -0.0176  -0.0056   0.0000
  56 C_a :4f3-  -0.0000   0.0000  -0.0000  -0.0047  -0.0443  -0.1966   0.0000
  58 C_a :4f1-  -0.0000  -0.0000   0.0000  -0.0033   0.0229  -0.0091  -0.0000
  60 C_a :4f1+  -0.0000  -0.0000   0.0000   0.0311  -0.0011   0.0544  -0.0000
  62 C_a :4f3+   0.0000   0.0000  -0.0000  -0.1154  -0.0964  -0.0566   0.0000
  72 C_a :5g4-   0.0000  -0.0000   0.0000   0.0021  -0.0075  -0.0268  -0.0000
  80 C_a :5g4+  -0.0000   0.0000   0.0000  -0.0125  -0.0018   0.0063  -0.0000
  82 C_b :1s    -0.0000   0.0000  -0.0000   0.0214  -0.0290  -0.0152   0.0000
  83 C_b :1s    -0.0000   0.0000  -0.0000   0.0094   0.0116  -0.0308   0.0000
  84 C_b :1s     0.0000  -0.0000   0.0000  -0.0852  -0.1944   0.5887  -0.0000
  85 C_b :1s    -0.0000   0.0000  -0.0000  -1.5219  -1.2531   2.4785   0.0000
  86 C_b :1s    -0.0000   0.0000  -0.0000   1.8366  20.2441   3.0529   0.0000
  87 C_b :2px    0.0000  -0.0000  -0.0000  -0.0251   0.0362   0.0313   0.0000
  89 C_b :2pz    0.1650  -0.3852   0.3452   0.0000  -0.0000   0.0000  -0.0081
  93 C_b :2px    0.0000  -0.0000  -0.0000   0.0714  -0.0623   0.0754   0.0000
  94 C_b :2py    0.0000   0.0000  -0.0000   0.3178   0.2194  -0.0070  -0.0000
  96 C_b :2px    0.0000  -0.0000  -0.0000  -0.6111  -1.2039   2.1725   0.0000
  97 C_b :2py    0.0000  -0.0000   0.0000   1.6095   0.2436  -0.8654  -0.0000
  98 C_b :2pz    0.0008  -0.0197   0.0441   0.0000  -0.0000   0.0000  -0.0231
  99 C_b :2px    0.0000  -0.0000  -0.0000  -1.5544   2.7525   1.6879   0.0000
 100 C_b :2py    0.0000   0.0000  -0.0000   3.2106   5.0167   1.8501   0.0000
 101 C_b :2pz    0.0052  -0.0150   0.0357   0.0000  -0.0000   0.0000  -0.0480
 108 C_b :3d1-  -0.0021  -0.0042   0.0130   0.0000  -0.0000   0.0000   0.0144
 109 C_b :3d0   -0.0000   0.0000  -0.0000   0.0015   0.0049  -0.0119   0.0000
 112 C_b :3d2-  -0.0000  -0.0000   0.0000  -0.1908  -0.0826   0.1530  -0.0000
 113 C_b :3d1-  -0.0005  -0.0041   0.0168   0.0000  -0.0000   0.0000   0.0440
 114 C_b :3d0    0.0000  -0.0000   0.0000   0.0317   0.0113  -0.0081  -0.0000
 115 C_b :3d1+   0.0080  -0.0138   0.0042   0.0000  -0.0000   0.0000   0.0060
 116 C_b :3d2+   0.0000  -0.0000   0.0000  -0.4055  -0.0206   0.6011  -0.0000
 117 C_b :3d2-  -0.0000  -0.0000   0.0000  -2.3123   0.3828  -0.2896  -0.0000
 118 C_b :3d1-  -0.0046   0.0051   0.0111   0.0000   0.0000   0.0000   0.0512
 119 C_b :3d0    0.0000  -0.0000   0.0000  -0.5064  -0.4269   0.3096  -0.0000
 120 C_b :3d1+   0.0051  -0.0081   0.0072   0.0000  -0.0000   0.0000   0.0481
 121 C_b :3d2+   0.0000  -0.0000   0.0000  -0.0644   0.1698   1.4725  -0.0000
 129 C_b :4f3-  -0.0000  -0.0000   0.0000  -0.0026  -0.0133   0.0084   0.0000
 135 C_b :4f3+  -0.0000   0.0000  -0.0000   0.0027   0.0149  -0.0024   0.0000
 136 C_b :4f3-  -0.0000   0.0000  -0.0000  -0.1388  -0.1039  -0.0676   0.0000
 138 C_b :4f1-  -0.0000   0.0000   0.0000   0.0343   0.0632   0.0470  -0.0000
 140 C_b :4f1+  -0.0000  -0.0000   0.0000  -0.0169  -0.0020   0.0020  -0.0000
 142 C_b :4f3+   0.0000  -0.0000   0.0000   0.1304  -0.1245   0.0815  -0.0000
 152 C_b :5g4-  -0.0000  -0.0000   0.0000   0.0077  -0.0016   0.0115  -0.0000
 160 C_b :5g4+  -0.0000   0.0000  -0.0000  -0.0021   0.0011  -0.0167   0.0000
 162 C_c :1s     0.0000  -0.0000   0.0000  -0.0020   0.0207  -0.0280  -0.0000
 163 C_c :1s     0.0000  -0.0000   0.0000   0.0083  -0.0174  -0.0291  -0.0000
 164 C_c :1s    -0.0000  -0.0000  -0.0000  -0.3318  -0.3679   0.5294   0.0000
 165 C_c :1s    -0.0000   0.0000   0.0000  -0.8354   3.2068   2.7631  -0.0000
 166 C_c :1s     0.0000  -0.0000  -0.0000   3.3021  -6.5168  -0.5228   0.0000
 167 C_c :2px   -0.0000   0.0000   0.0000   0.0242   0.0310  -0.0362  -0.0000
 168 C_c :2py   -0.0000   0.0000  -0.0000  -0.0071   0.0089  -0.0138   0.0000
 169 C_c :2pz    0.2294  -0.1238  -0.2648  -0.0000   0.0000  -0.0000  -0.3228
 173 C_c :2px   -0.0000   0.0000  -0.0000   0.0182   0.0309   0.0791   0.0000
 174 C_c :2py   -0.0000  -0.0000   0.0000   0.0492  -0.1499  -0.1399  -0.0000
 176 C_c :2px    0.0000   0.0000   0.0000   0.1506  -2.1206  -0.7205  -0.0000
 177 C_c :2py   -0.0000   0.0000  -0.0000   0.0764  -0.4922  -1.5321   0.0000
 178 C_c :2pz   -0.0057   0.0058  -0.0080  -0.0000   0.0000   0.0000  -0.0305
 179 C_c :2px    0.0000   0.0000  -0.0000  -0.9914  -2.0390  -2.0707   0.0000
 180 C_c :2py   -0.0000  -0.0000   0.0000   4.0485   1.8823   1.6264  -0.0000
 181 C_c :2pz   -0.0032  -0.0046  -0.0197  -0.0000   0.0000  -0.0000  -0.1281
 188 C_c :3d1-  -0.0026  -0.0097   0.0181   0.0000  -0.0000   0.0000  -0.0024
 192 C_c :3d2-  -0.0000  -0.0000  -0.0000  -0.2530  -0.0548   0.3855   0.0000
 193 C_c :3d1-  -0.0059  -0.0075   0.0244   0.0000   0.0000  -0.0000  -0.0050
 194 C_c :3d0   -0.0000  -0.0000  -0.0000  -0.0360  -0.2425  -0.0499   0.0000
 195 C_c :3d1+  -0.0089   0.0048  -0.0001   0.0000  -0.0000   0.0000  -0.0157
 196 C_c :3d2+   0.0000  -0.0000   0.0000  -0.1172  -0.1079   0.6811   0.0000
 197 C_c :3d2-   0.0000   0.0000  -0.0000  -1.2008  -0.0302   1.1145   0.0000
 198 C_c :3d1-  -0.0149   0.0124   0.0017  -0.0000   0.0000   0.0000  -0.0047
 199 C_c :3d0   -0.0000   0.0000  -0.0000  -0.7265  -0.5609   0.5334   0.0000
 200 C_c :3d1+   0.0008  -0.0086   0.0011   0.0000  -0.0000  -0.0000  -0.0750
 201 C_c :3d2+   0.0000  -0.0000  -0.0000   0.1152  -0.5231   1.5950   0.0000
 209 C_c :4f3-  -0.0000   0.0000  -0.0000   0.0001   0.0195  -0.0019   0.0000
 211 C_c :4f1-   0.0000   0.0000  -0.0000  -0.0043   0.0105   0.0016   0.0000
 216 C_c :4f3-   0.0000  -0.0000   0.0000  -0.0085   0.0174   0.0117  -0.0000
 218 C_c :4f1-   0.0000  -0.0000   0.0000  -0.0156  -0.0310  -0.0182  -0.0000
 220 C_c :4f1+  -0.0000   0.0000  -0.0000  -0.0066   0.0375  -0.0307   0.0000
 222 C_c :4f3+  -0.0000   0.0000  -0.0000   0.0331   0.0162   0.1062   0.0000
 240 C_c :5g4+   0.0000  -0.0000  -0.0000   0.0016  -0.0068   0.0204   0.0000
 242 C_d :1s     0.0000  -0.0000  -0.0000   0.0050  -0.0138  -0.0213   0.0000
 243 C_d :1s     0.0000   0.0000  -0.0000   0.0046   0.0366  -0.0209   0.0000
 244 C_d :1s    -0.0000  -0.0000   0.0000  -0.2031  -0.2763   0.5501  -0.0000
 245 C_d :1s     0.0000   0.0000  -0.0000  -1.1541  -4.0729   1.9901  -0.0000
 246 C_d :1s    -0.0000  -0.0000  -0.0000   3.8941  10.7452  -0.8013   0.0000
 247 C_d :2px   -0.0000  -0.0000  -0.0000  -0.0055   0.0226   0.0365   0.0000
 248 C_d :2py    0.0000  -0.0000   0.0000  -0.0004   0.0065   0.0125  -0.0000
 249 C_d :2pz    0.1915   0.1417  -0.3952   0.0000   0.0000  -0.0000   0.1072
 253 C_d :2px   -0.0000  -0.0000  -0.0000  -0.0258  -0.0591  -0.0708  -0.0000
 254 C_d :2py    0.0000  -0.0000   0.0000   0.1382  -0.1570  -0.0907  -0.0000
 256 C_d :2px   -0.0000   0.0000  -0.0000  -0.4168  -2.6459   0.5032   0.0000
 257 C_d :2py    0.0000  -0.0000   0.0000  -0.4120  -1.2571  -0.8930  -0.0000
 258 C_d :2pz    0.0036   0.0021  -0.0539  -0.0000   0.0000  -0.0000  -0.0168
 259 C_d :2px   -0.0000  -0.0000   0.0000  -0.3303   2.5761   1.9827  -0.0000
 260 C_d :2py    0.0000   0.0000  -0.0000   2.8995  -2.0439  -0.9912   0.0000
 261 C_d :2pz    0.0023   0.0067  -0.0432   0.0000   0.0000  -0.0000   0.0091
 267 C_d :3d2-   0.0000  -0.0000   0.0000   0.0035  -0.0013  -0.0104  -0.0000
 268 C_d :3d1-   0.0057  -0.0071  -0.0113  -0.0000   0.0000  -0.0000  -0.0168
 269 C_d :3d0    0.0000   0.0000  -0.0000   0.0022   0.0139  -0.0064   0.0000
 272 C_d :3d2-   0.0000  -0.0000  -0.0000  -0.1542  -0.0175   0.3937   0.0000
 273 C_d :3d1-   0.0025  -0.0012  -0.0116   0.0000  -0.0000   0.0000  -0.0294
 274 C_d :3d0   -0.0000  -0.0000   0.0000  -0.0230   0.1768   0.0203  -0.0000
 275 C_d :3d1+   0.0094   0.0089  -0.0078  -0.0000   0.0000  -0.0000   0.0191
 276 C_d :3d2+   0.0000  -0.0000   0.0000  -0.3169  -0.1934   0.7154  -0.0000
[...]
      ----------------------------------------------------------------
         1    2.45372D-02  0.00D+00  2.45D-02  3.39D+01    0.00000D+00
         2    2.56079D-02  0.00D+00  2.56D-02  3.53D+01    2.33000D-02
         3    2.93636D-02  0.00D+00  2.94D-02  3.99D+01    4.66000D-02

 *** THE REQUESTED    3 SOLUTION VECTORS CONVERGED

 Convergence of RSP solution vectors, threshold = 1.00D-03
 ---------------------------------------------------------------
 (dimension of paired reduced space:   42)
 RSP solution vector no.    1; norm of residual   7.24D-04
 RSP solution vector no.    2; norm of residual   7.26D-04
 RSP solution vector no.    3; norm of residual   7.36D-04

 *** RSPCTL MICROITERATIONS CONVERGED

@ QRLRVE: SINGLET SOLUTION FOR SYMMETRY    1  ( A  )    LABEL   YDIPLEN     FREQUENCY   0.000000D+00

@ QRLRVE:  << XDIPLEN  ; YDIPLEN  >> (   0.00000):    -58.1844724352    

@ QRLRVE:  << YDIPLEN  ; YDIPLEN  >> (   0.00000):     408.189278455    

@ QRLRVE:  << ZDIPLEN  ; YDIPLEN  >> (   0.00000):    2.277222020953E-14

@ QRLRVE: SINGLET SOLUTION FOR SYMMETRY    1  ( A  )    LABEL   YDIPLEN     FREQUENCY   0.233000D-01

@ QRLRVE:  << XDIPLEN  ; YDIPLEN  >> (   0.02330):    -59.9221723034    

@ QRLRVE:  << YDIPLEN  ; YDIPLEN  >> (   0.02330):     416.988414663    

@ QRLRVE:  << ZDIPLEN  ; YDIPLEN  >> (   0.02330):    2.423049614170E-14

@ QRLRVE: SINGLET SOLUTION FOR SYMMETRY    1  ( A  )    LABEL   YDIPLEN     FREQUENCY   0.466000D-01

@ QRLRVE:  << XDIPLEN  ; YDIPLEN  >> (   0.04660):    -65.8045475475    

@ QRLRVE:  << YDIPLEN  ; YDIPLEN  >> (   0.04660):     446.598704967    

@ QRLRVE:  << ZDIPLEN  ; YDIPLEN  >> (   0.04660):    2.928380450160E-14


 QRLRVE -- linear response calculation for symmetry  1  ( A  )
 QRLRVE -- operator label : ZDIPLEN 
 QRLRVE -- operator spin  :   0
 QRLRVE -- frequencies :  0.000000  0.023300  0.046600



 ---  SOLVING SETS OF LINEAR EQUATIONS FOR LINEAR RESPONSE PROPERTIES ---

 Operator symmetry = 1  ( A  ); triplet =   F


 ** RSPCTL MICROITERATION NUMBER    1

       No.  Residual tot.,    conf., and orb.    Bnorm      Frequency 
      ----------------------------------------------------------------
         1    2.89171D+00  0.00D+00  2.89D+00  6.86D+00    0.00000D+00
         2    2.89514D+00  0.00D+00  2.90D+00  6.89D+00    2.33000D-02
         3    2.90553D+00  0.00D+00  2.91D+00  6.98D+00    4.66000D-02

 ** RSPCTL MICROITERATION NUMBER    2

       No.  Residual tot.,    conf., and orb.    Bnorm      Frequency 
      ----------------------------------------------------------------
         1    7.43660D-01  0.00D+00  7.44D-01  7.20D+00    0.00000D+00
         2    7.46168D-01  0.00D+00  7.46D-01  7.23D+00    2.33000D-02
         3    7.53828D-01  0.00D+00  7.54D-01  7.34D+00    4.66000D-02

 ** RSPCTL MICROITERATION NUMBER    3

       No.  Residual tot.,    conf., and orb.    Bnorm      Frequency 
      ----------------------------------------------------------------
         1    1.58094D-01  0.00D+00  1.58D-01  7.23D+00    0.00000D+00
         2    1.59730D-01  0.00D+00  1.60D-01  7.26D+00    2.33000D-02
         3    1.64783D-01  0.00D+00  1.65D-01  7.37D+00    4.66000D-02

 ** RSPCTL MICROITERATION NUMBER    4

       No.  Residual tot.,    conf., and orb.    Bnorm      Frequency 
      ----------------------------------------------------------------
         1    4.14007D-02  0.00D+00  4.14D-02  7.23D+00    0.00000D+00
         2    4.24531D-02  0.00D+00  4.25D-02  7.27D+00    2.33000D-02
         3    4.58350D-02  0.00D+00  4.58D-02  7.37D+00    4.66000D-02

 ** RSPCTL MICROITERATION NUMBER    5

       No.  Residual tot.,    conf., and orb.    Bnorm      Frequency 
      ----------------------------------------------------------------
         1    1.59402D-02  0.00D+00  1.59D-02  7.23D+00    0.00000D+00
         2    1.67310D-02  0.00D+00  1.67D-02  7.27D+00    2.33000D-02
         3    1.92887D-02  0.00D+00  1.93D-02  7.37D+00    4.66000D-02

 ** RSPCTL MICROITERATION NUMBER    6

       No.  Residual tot.,    conf., and orb.    Bnorm      Frequency 
      ----------------------------------------------------------------
         1    6.34740D-03  0.00D+00  6.35D-03  7.23D+00    0.00000D+00
         2    6.77832D-03  0.00D+00  6.78D-03  7.27D+00    2.33000D-02
         3    8.21003D-03  0.00D+00  8.21D-03  7.37D+00    4.66000D-02

 ** RSPCTL MICROITERATION NUMBER    7

       No.  Residual tot.,    conf., and orb.    Bnorm      Frequency 
      ----------------------------------------------------------------
         1    1.69566D-03  0.00D+00  1.70D-03  7.23D+00    0.00000D+00
         2    1.81706D-03  0.00D+00  1.82D-03  7.27D+00    2.33000D-02
         3    2.30059D-03  0.00D+00  2.30D-03  7.37D+00    4.66000D-02

 *** THE REQUESTED    3 SOLUTION VECTORS CONVERGED

 Convergence of RSP solution vectors, threshold = 1.00D-03
 ---------------------------------------------------------------
 (dimension of paired reduced space:   38)
 RSP solution vector no.    1; norm of residual   2.34D-04
 RSP solution vector no.    2; norm of residual   2.50D-04
 RSP solution vector no.    3; norm of residual   3.12D-04

 *** RSPCTL MICROITERATIONS CONVERGED

@ QRLRVE: SINGLET SOLUTION FOR SYMMETRY    1  ( A  )    LABEL   ZDIPLEN     FREQUENCY   0.000000D+00

@ QRLRVE:  << XDIPLEN  ; ZDIPLEN  >> (   0.00000):    5.467874517151E-15

@ QRLRVE:  << YDIPLEN  ; ZDIPLEN  >> (   0.00000):    2.777070643956E-14

@ QRLRVE:  << ZDIPLEN  ; ZDIPLEN  >> (   0.00000):     75.6997706341    

@ QRLRVE: SINGLET SOLUTION FOR SYMMETRY    1  ( A  )    LABEL   ZDIPLEN     FREQUENCY   0.233000D-01

@ QRLRVE:  << XDIPLEN  ; ZDIPLEN  >> (   0.02330):    5.698033556737E-15

@ QRLRVE:  << YDIPLEN  ; ZDIPLEN  >> (   0.02330):    2.942815190323E-14

@ QRLRVE:  << ZDIPLEN  ; ZDIPLEN  >> (   0.02330):     75.8412780309    

@ QRLRVE: SINGLET SOLUTION FOR SYMMETRY    1  ( A  )    LABEL   ZDIPLEN     FREQUENCY   0.466000D-01

@ QRLRVE:  << XDIPLEN  ; ZDIPLEN  >> (   0.04660):    6.415220049221E-15

@ QRLRVE:  << YDIPLEN  ; ZDIPLEN  >> (   0.04660):    3.499792593826E-14

@ QRLRVE:  << ZDIPLEN  ; ZDIPLEN  >> (   0.04660):     76.2719096138    
 
 ======================================================================
 ---  L I N E A R   R E S P O N S E   F U N C T I O N S --- 
 ======================================================================

 The -<<A;B>>(omega_b) functions from vectors generated
 in a *QUADRA calculation of <<A;B,C>>(omega_b,omega_c)

 Note: the accuracy of off-diagonal elements will be linear
 in the convergence threshold THCLR =  1.00D-03


 Perturbation symmetry.     KSYMOP:           1
 Perturbation spin symmetry.TRPLET:           F
 Orbital variables.         KZWOPT:       60104
 Configuration variables.   KZCONF:           0
 Total number of variables. KZVAR :       60104

@ Singlet linear response function in a.u.

@ A operator, symmetry, frequency:   XDIPLEN    1 -0.000000
@ B operator, symmetry, frequency:   XDIPLEN    1  0.000000

@ Value of linear response -<<A;B>>(omega):     119.455616067938

@ Singlet linear response function in a.u.

@ A operator, symmetry, frequency:   YDIPLEN    1 -0.000000
@ B operator, symmetry, frequency:   XDIPLEN    1  0.000000

@ Value of linear response -<<A;B>>(omega):     -58.180973204644

@ Singlet linear response function in a.u.

@ A operator, symmetry, frequency:   ZDIPLEN    1 -0.000000
@ B operator, symmetry, frequency:   XDIPLEN    1  0.000000

@ Value of linear response -<<A;B>>(omega):      -0.000000000000

@ Singlet linear response function in a.u.

@ A operator, symmetry, frequency:   XDIPLEN    1 -0.023300
@ B operator, symmetry, frequency:   XDIPLEN    1  0.023300

@ Value of linear response -<<A;B>>(omega):     120.060776835422

@ Singlet linear response function in a.u.

@ A operator, symmetry, frequency:   YDIPLEN    1 -0.023300
@ B operator, symmetry, frequency:   XDIPLEN    1  0.023300

@ Value of linear response -<<A;B>>(omega):     -59.918571189302

@ Singlet linear response function in a.u.

@ A operator, symmetry, frequency:   ZDIPLEN    1 -0.023300
@ B operator, symmetry, frequency:   XDIPLEN    1  0.023300

@ Value of linear response -<<A;B>>(omega):      -0.000000000000

@ Singlet linear response function in a.u.

@ A operator, symmetry, frequency:   XDIPLEN    1 -0.000000
@ B operator, symmetry, frequency:   YDIPLEN    1  0.000000

@ Value of linear response -<<A;B>>(omega):     -58.184472435153

@ Singlet linear response function in a.u.

@ A operator, symmetry, frequency:   YDIPLEN    1 -0.000000
@ B operator, symmetry, frequency:   YDIPLEN    1  0.000000

@ Value of linear response -<<A;B>>(omega):     408.189278454510

@ Singlet linear response function in a.u.

@ A operator, symmetry, frequency:   ZDIPLEN    1 -0.000000
@ B operator, symmetry, frequency:   YDIPLEN    1  0.000000

@ Value of linear response -<<A;B>>(omega):       0.000000000000

@ Singlet linear response function in a.u.

@ A operator, symmetry, frequency:   XDIPLEN    1 -0.023300
@ B operator, symmetry, frequency:   YDIPLEN    1  0.023300

@ Value of linear response -<<A;B>>(omega):     -59.922172303396

@ Singlet linear response function in a.u.

@ A operator, symmetry, frequency:   YDIPLEN    1 -0.023300
@ B operator, symmetry, frequency:   YDIPLEN    1  0.023300

@ Value of linear response -<<A;B>>(omega):     416.988414662847

@ Singlet linear response function in a.u.

@ A operator, symmetry, frequency:   ZDIPLEN    1 -0.023300
@ B operator, symmetry, frequency:   YDIPLEN    1  0.023300

@ Value of linear response -<<A;B>>(omega):       0.000000000000

@ Singlet linear response function in a.u.

@ A operator, symmetry, frequency:   XDIPLEN    1 -0.000000
@ B operator, symmetry, frequency:   ZDIPLEN    1  0.000000

@ Value of linear response -<<A;B>>(omega):       0.000000000000

@ Singlet linear response function in a.u.

@ A operator, symmetry, frequency:   YDIPLEN    1 -0.000000
@ B operator, symmetry, frequency:   ZDIPLEN    1  0.000000

@ Value of linear response -<<A;B>>(omega):       0.000000000000

@ Singlet linear response function in a.u.

@ A operator, symmetry, frequency:   ZDIPLEN    1 -0.000000
@ B operator, symmetry, frequency:   ZDIPLEN    1  0.000000

@ Value of linear response -<<A;B>>(omega):      75.699770634074

@ Singlet linear response function in a.u.

@ A operator, symmetry, frequency:   XDIPLEN    1 -0.023300
@ B operator, symmetry, frequency:   ZDIPLEN    1  0.023300

@ Value of linear response -<<A;B>>(omega):       0.000000000000

@ Singlet linear response function in a.u.

@ A operator, symmetry, frequency:   YDIPLEN    1 -0.023300
@ B operator, symmetry, frequency:   ZDIPLEN    1  0.023300

@ Value of linear response -<<A;B>>(omega):       0.000000000000

@ Singlet linear response function in a.u.

@ A operator, symmetry, frequency:   ZDIPLEN    1 -0.023300
@ B operator, symmetry, frequency:   ZDIPLEN    1  0.023300

@ Value of linear response -<<A;B>>(omega):      75.841278030910


  Results from quadratic response calculation
 --------------------------------------------

@ B-freq = 0.000000  C-freq = 0.000000     beta(X;X,X) =   -330.52794899
@ B-freq = 0.000000  C-freq = 0.000000     beta(Y;X,X) =   1162.80844273
@ B-freq = 0.000000  C-freq = 0.000000     beta(Z;X,X) =      0.00000000
@ B-freq = 0.023300  C-freq = 0.000000     beta(X;X,X) =   -346.68214381
@ B-freq = 0.023300  C-freq = 0.000000     beta(Y;X,X) =   1220.79310124
@ B-freq = 0.023300  C-freq = 0.000000     beta(Z;X,X) =      0.00000000
@ B-freq = 0.000000  C-freq = 0.000000     beta(X;Y,X) = beta(Y,X,X)
@ B-freq = 0.000000  C-freq = 0.000000     beta(X;Y,X) =   1162.80846340
@ B-freq = 0.000000  C-freq = 0.000000     beta(Y;Y,X) =  -3085.59921170
@ B-freq = 0.000000  C-freq = 0.000000     beta(Z;Y,X) =     -0.00000000
@ B-freq = 0.023300  C-freq = 0.000000     beta(X;Y,X) =   1220.79312294
@ B-freq = 0.023300  C-freq = 0.000000     beta(Y;Y,X) =  -3275.78236110
@ B-freq = 0.023300  C-freq = 0.000000     beta(Z;Y,X) =     -0.00000000
@ B-freq = 0.000000  C-freq = 0.000000     beta(X;Z,X) = beta(Z,X,X)
@ B-freq = 0.000000  C-freq = 0.000000     beta(Y;Z,X) = beta(Z,Y,X)
@ B-freq = 0.000000  C-freq = 0.000000     beta(X;Z,X) =      0.00000000
@ B-freq = 0.000000  C-freq = 0.000000     beta(Y;Z,X) =     -0.00000000
@ B-freq = 0.000000  C-freq = 0.000000     beta(Z;Z,X) =     16.04099852
@ B-freq = 0.023300  C-freq = 0.000000     beta(X;Z,X) =      0.00000000
@ B-freq = 0.023300  C-freq = 0.000000     beta(Y;Z,X) =     -0.00000000
@ B-freq = 0.023300  C-freq = 0.000000     beta(Z;Z,X) =     16.26005477
@ B-freq = 0.000000  C-freq = 0.023300     beta(X;X,X) = beta(X,X,X)
@ B-freq = 0.000000  C-freq = 0.023300     beta(Y;X,X) = beta(Y,X,X)
@ B-freq = 0.000000  C-freq = 0.023300     beta(Z;X,X) = beta(Z,X,X)
@ B-freq = 0.023300  C-freq = 0.023300     beta(X;X,X) =   -382.99349790
@ B-freq = 0.023300  C-freq = 0.023300     beta(Y;X,X) =   1366.78081667
@ B-freq = 0.023300  C-freq = 0.023300     beta(Z;X,X) =      0.00000000
@ B-freq = 0.000000  C-freq = 0.023300     beta(X;Y,X) =   1208.06886773
@ B-freq = 0.000000  C-freq = 0.023300     beta(Y;Y,X) =  -3227.78381938
@ B-freq = 0.000000  C-freq = 0.023300     beta(Z;Y,X) =     -0.00000000
@ B-freq = 0.023300  C-freq = 0.023300     beta(X;Y,X) =   1323.09099625
@ B-freq = 0.023300  C-freq = 0.023300     beta(Y;Y,X) =  -3657.36858200
@ B-freq = 0.023300  C-freq = 0.023300     beta(Z;Y,X) =     -0.00000000
@ B-freq = 0.000000  C-freq = 0.023300     beta(X;Z,X) =      0.00000000
@ B-freq = 0.000000  C-freq = 0.023300     beta(Y;Z,X) =     -0.00000000
@ B-freq = 0.000000  C-freq = 0.023300     beta(Z;Z,X) =     16.32665693
@ B-freq = 0.023300  C-freq = 0.023300     beta(X;Z,X) =      0.00000000
@ B-freq = 0.023300  C-freq = 0.023300     beta(Y;Z,X) =     -0.00000000
@ B-freq = 0.023300  C-freq = 0.023300     beta(Z;Z,X) =     16.78613781
@ B-freq = 0.000000  C-freq = 0.000000     beta(X;X,Y) = beta(Y,X,X)
@ B-freq = 0.000000  C-freq = 0.000000     beta(Y;X,Y) = beta(Y,Y,X)
@ B-freq = 0.000000  C-freq = 0.000000     beta(Z;X,Y) = beta(Z,Y,X)
@ B-freq = 0.023300  C-freq = 0.000000     beta(X;X,Y) = beta(X,Y,X)
@ B-freq = 0.023300  C-freq = 0.000000     beta(Y;X,Y) = beta(Y,Y,X)
@ B-freq = 0.023300  C-freq = 0.000000     beta(Z;X,Y) = beta(Z,Y,X)
@ B-freq = 0.000000  C-freq = 0.000000     beta(X;Y,Y) = beta(Y,Y,X)
@ B-freq = 0.000000  C-freq = 0.000000     beta(X;Y,Y) =  -3085.59954927
@ B-freq = 0.000000  C-freq = 0.000000     beta(Y;Y,Y) =   5668.95383704
@ B-freq = 0.000000  C-freq = 0.000000     beta(Z;Y,Y) =      0.00000000
@ B-freq = 0.023300  C-freq = 0.000000     beta(X;Y,Y) =  -3227.78417600
@ B-freq = 0.023300  C-freq = 0.000000     beta(Y;Y,Y) =   6041.45826180
@ B-freq = 0.023300  C-freq = 0.000000     beta(Z;Y,Y) =      0.00000000
@ B-freq = 0.000000  C-freq = 0.000000     beta(X;Z,Y) = beta(Z,Y,X)
@ B-freq = 0.000000  C-freq = 0.000000     beta(Y;Z,Y) = beta(Z,Y,Y)
@ B-freq = 0.000000  C-freq = 0.000000     beta(X;Z,Y) =     -0.00000000
@ B-freq = 0.000000  C-freq = 0.000000     beta(Y;Z,Y) =      0.00000000
@ B-freq = 0.000000  C-freq = 0.000000     beta(Z;Z,Y) =    -37.41610351
@ B-freq = 0.023300  C-freq = 0.000000     beta(X;Z,Y) =     -0.00000000
@ B-freq = 0.023300  C-freq = 0.000000     beta(Y;Z,Y) =      0.00000000
@ B-freq = 0.023300  C-freq = 0.000000     beta(Z;Z,Y) =    -38.15520163
@ B-freq = 0.000000  C-freq = 0.023300     beta(X;X,Y) = beta(X,Y,X)
@ B-freq = 0.000000  C-freq = 0.023300     beta(Y;X,Y) = beta(Y,Y,X)
@ B-freq = 0.000000  C-freq = 0.023300     beta(Z;X,Y) = beta(Z,Y,X)
@ B-freq = 0.023300  C-freq = 0.023300     beta(X;X,Y) = beta(X,Y,X)
@ B-freq = 0.023300  C-freq = 0.023300     beta(Y;X,Y) = beta(Y,Y,X)
@ B-freq = 0.023300  C-freq = 0.023300     beta(Z;X,Y) = beta(Z,Y,X)
@ B-freq = 0.000000  C-freq = 0.023300     beta(X;Y,Y) = beta(X,Y,Y)
@ B-freq = 0.000000  C-freq = 0.023300     beta(Y;Y,Y) = beta(Y,Y,Y)
@ B-freq = 0.000000  C-freq = 0.023300     beta(Z;Y,Y) = beta(Z,Y,Y)
@ B-freq = 0.023300  C-freq = 0.023300     beta(X;Y,Y) =  -3492.84136429
@ B-freq = 0.023300  C-freq = 0.023300     beta(Y;Y,Y) =   6897.46450828
@ B-freq = 0.023300  C-freq = 0.023300     beta(Z;Y,Y) =      0.00000000
@ B-freq = 0.000000  C-freq = 0.023300     beta(X;Z,Y) =     -0.00000000
@ B-freq = 0.000000  C-freq = 0.023300     beta(Y;Z,Y) =      0.00000000
@ B-freq = 0.000000  C-freq = 0.023300     beta(Z;Z,Y) =    -38.45896875
@ B-freq = 0.023300  C-freq = 0.023300     beta(X;Z,Y) =     -0.00000000
@ B-freq = 0.023300  C-freq = 0.023300     beta(Y;Z,Y) =      0.00000000
@ B-freq = 0.023300  C-freq = 0.023300     beta(Z;Z,Y) =    -40.02947639
@ B-freq = 0.000000  C-freq = 0.000000     beta(X;X,Z) = beta(Z,X,X)
@ B-freq = 0.000000  C-freq = 0.000000     beta(Y;X,Z) = beta(Z,Y,X)
@ B-freq = 0.000000  C-freq = 0.000000     beta(Z;X,Z) = beta(Z,Z,X)
@ B-freq = 0.023300  C-freq = 0.000000     beta(X;X,Z) = beta(X,Z,X)
@ B-freq = 0.023300  C-freq = 0.000000     beta(Y;X,Z) = beta(Y,Z,X)
@ B-freq = 0.023300  C-freq = 0.000000     beta(Z;X,Z) = beta(Z,Z,X)
@ B-freq = 0.000000  C-freq = 0.000000     beta(X;Y,Z) = beta(Z,Y,X)
@ B-freq = 0.000000  C-freq = 0.000000     beta(Y;Y,Z) = beta(Z,Y,Y)
@ B-freq = 0.000000  C-freq = 0.000000     beta(Z;Y,Z) = beta(Z,Z,Y)
@ B-freq = 0.023300  C-freq = 0.000000     beta(X;Y,Z) = beta(X,Z,Y)
@ B-freq = 0.023300  C-freq = 0.000000     beta(Y;Y,Z) = beta(Y,Z,Y)
@ B-freq = 0.023300  C-freq = 0.000000     beta(Z;Y,Z) = beta(Z,Z,Y)
@ B-freq = 0.000000  C-freq = 0.000000     beta(X;Z,Z) = beta(Z,Z,X)
@ B-freq = 0.000000  C-freq = 0.000000     beta(Y;Z,Z) = beta(Z,Z,Y)
@ B-freq = 0.000000  C-freq = 0.000000     beta(X;Z,Z) =     16.04099333
@ B-freq = 0.000000  C-freq = 0.000000     beta(Y;Z,Z) =    -37.41607742
@ B-freq = 0.000000  C-freq = 0.000000     beta(Z;Z,Z) =      0.00000000
@ B-freq = 0.023300  C-freq = 0.000000     beta(X;Z,Z) =     16.32665149
@ B-freq = 0.023300  C-freq = 0.000000     beta(Y;Z,Z) =    -38.45894142
@ B-freq = 0.023300  C-freq = 0.000000     beta(Z;Z,Z) =      0.00000000
@ B-freq = 0.000000  C-freq = 0.023300     beta(X;X,Z) = beta(X,Z,X)
@ B-freq = 0.000000  C-freq = 0.023300     beta(Y;X,Z) = beta(Y,Z,X)
@ B-freq = 0.000000  C-freq = 0.023300     beta(Z;X,Z) = beta(Z,Z,X)
@ B-freq = 0.023300  C-freq = 0.023300     beta(X;X,Z) = beta(X,Z,X)
@ B-freq = 0.023300  C-freq = 0.023300     beta(Y;X,Z) = beta(Y,Z,X)
@ B-freq = 0.023300  C-freq = 0.023300     beta(Z;X,Z) = beta(Z,Z,X)
@ B-freq = 0.000000  C-freq = 0.023300     beta(X;Y,Z) = beta(X,Z,Y)
@ B-freq = 0.000000  C-freq = 0.023300     beta(Y;Y,Z) = beta(Y,Z,Y)
@ B-freq = 0.000000  C-freq = 0.023300     beta(Z;Y,Z) = beta(Z,Z,Y)
@ B-freq = 0.023300  C-freq = 0.023300     beta(X;Y,Z) = beta(X,Z,Y)
@ B-freq = 0.023300  C-freq = 0.023300     beta(Y;Y,Z) = beta(Y,Z,Y)
@ B-freq = 0.023300  C-freq = 0.023300     beta(Z;Y,Z) = beta(Z,Z,Y)
@ B-freq = 0.000000  C-freq = 0.023300     beta(X;Z,Z) = beta(X,Z,Z)
@ B-freq = 0.000000  C-freq = 0.023300     beta(Y;Z,Z) = beta(Y,Z,Z)
@ B-freq = 0.000000  C-freq = 0.023300     beta(Z;Z,Z) = beta(Z,Z,Z)
@ B-freq = 0.023300  C-freq = 0.023300     beta(X;Z,Z) =     17.02304982
@ B-freq = 0.023300  C-freq = 0.023300     beta(Y;Z,Z) =    -41.11702109
@ B-freq = 0.023300  C-freq = 0.023300     beta(Z;Z,Z) =      0.00000000

  Total CPU  time used in RESPONSE:   3 hours 56 minutes 43 seconds
  Total wall time used in RESPONSE:   3 hours 57 minutes 49 seconds


                   .-------------------------------------------.
                   | End of Dynamic Property Section (RESPONS) |
                   `-------------------------------------------'

  Total CPU  time used in DALTON:   4 hours 56 minutes 22 seconds
  Total wall time used in DALTON:   4 hours 57 minutes 45 seconds

 
     Date and time (Linux)  : Thu May  8 20:30:08 2025
     Host name              : xm046                                   
