

     ************************************************************************
     *************** Dalton - An Electronic Structure Program ***************
     ************************************************************************

    This is output from DALTON release Dalton2020.0 (2020)
         ( Web site: http://daltonprogram.org )

   ----------------------------------------------------------------------------

    NOTE:
     
    Dalton is an experimental code for the evaluation of molecular
    properties using (MC)SCF, DFT, CI, and CC wave functions.
    The authors accept no responsibility for the performance of
    the code or for the correctness of the results.
     
    The code (in whole or part) is provided under a licence and
    is not to be reproduced for further distribution without
    the written permission of the authors or their representatives.
     
    See the home page "http://daltonprogram.org" for further information.
     
    If results obtained with this code are published,
    the appropriate citations would be both of:
     
       K. Aidas, C. Angeli, K. L. Bak, V. Bakken, R. Bast,
       L. Boman, O. Christiansen, R. Cimiraglia, S. Coriani,
       P. Dahle, E. K. Dalskov, U. Ekstroem,
       T. Enevoldsen, J. J. Eriksen, P. Ettenhuber, B. Fernandez,
       L. Ferrighi, H. Fliegl, L. Frediani, K. Hald, A. Halkier,
       C. Haettig, H. Heiberg, T. Helgaker, A. C. Hennum,
       H. Hettema, E. Hjertenaes, S. Hoest, I.-M. Hoeyvik,
       M. F. Iozzi, B. Jansik, H. J. Aa. Jensen, D. Jonsson,
       P. Joergensen, J. Kauczor, S. Kirpekar,
       T. Kjaergaard, W. Klopper, S. Knecht, R. Kobayashi, H. Koch,
       J. Kongsted, A. Krapp, K. Kristensen, A. Ligabue,
       O. B. Lutnaes, J. I. Melo, K. V. Mikkelsen, R. H. Myhre,
       C. Neiss, C. B. Nielsen, P. Norman, J. Olsen,
       J. M. H. Olsen, A. Osted, M. J. Packer, F. Pawlowski,
       T. B. Pedersen, P. F. Provasi, S. Reine, Z. Rinkevicius,
       T. A. Ruden, K. Ruud, V. Rybkin, P. Salek, C. C. M. Samson,
       A. Sanchez de Meras, T. Saue, S. P. A. Sauer,
       B. Schimmelpfennig, K. Sneskov, A. H. Steindal,
       K. O. Sylvester-Hvid, P. R. Taylor, A. M. Teale,
       E. I. Tellgren, D. P. Tew, A. J. Thorvaldsen, L. Thoegersen,
       O. Vahtras, M. A. Watson, D. J. D. Wilson, M. Ziolkowski
       and H. Agren,
       "The Dalton quantum chemistry program system",
       WIREs Comput. Mol. Sci. 2014, 4:269–284 (doi: 10.1002/wcms.1172)
     
    and
     
       Dalton, a molecular electronic structure program,
       Release Dalton2020.0 (2020), see http://daltonprogram.org
   ----------------------------------------------------------------------------

    Authors in alphabetical order (Major contribution(s) in parenthesis):

  Kestutis Aidas,           Vilnius University,           Lithuania   (QM/MM)
  Celestino Angeli,         University of Ferrara,        Italy       (NEVPT2)
  Keld L. Bak,              UNI-C,                        Denmark     (AOSOPPA, non-adiabatic coupling, magnetic properties)
  Vebjoern Bakken,          University of Oslo,           Norway      (DALTON; geometry optimizer, symmetry detection)
  Radovan Bast,             UiT The Arctic U. of Norway,  Norway      (DALTON installation and execution frameworks)
  Pablo Baudin,             University of Valencia,       Spain       (Cholesky excitation energies)
  Linus Boman,              NTNU,                         Norway      (Cholesky decomposition and subsystems)
  Bruno N. Cabral Tenorio,  Technical Univ. of Denmark,   Denmark     (Lanczos-based CC methods)
  Ove Christiansen,         Aarhus University,            Denmark     (CC module)
  Renzo Cimiraglia,         University of Ferrara,        Italy       (NEVPT2)
  Sonia Coriani,            Technical Univ. of Denmark,   Denmark     (CC and RESPONS modules)
  Janusz Cukras,            University of Warsaw,         Poland      (MChD in RESPONS)
  Paal Dahle,               University of Oslo,           Norway      (Parallelization)
  Erik K. Dalskov,          UNI-C,                        Denmark     (SOPPA)
  Thomas Enevoldsen,        Univ. of Southern Denmark,    Denmark     (SOPPA)
  Janus J. Eriksen,         Aarhus University,            Denmark     (Polarizable embedding, TDA)
  Rasmus Faber,             Technical Univ. of Denmark,   Denmark     (Vib.avg. NMR w. SOPPA, parallel AO-SOPPA, CVS-CC and EOMCC)
  Tobias Fahleson,          KTH Stockholm,                Sweden      (Damped cubic response)
  Berta Fernandez,          U. of Santiago de Compostela, Spain       (Doublet spin, ESR in RESPONS)
  Lara Ferrighi,            Aarhus University,            Denmark     (PCM Cubic response)
  Heike Fliegl,             University of Oslo,           Norway      (CCSD(R12))
  Luca Frediani,            UiT The Arctic U. of Norway,  Norway      (PCM)
  Emmanuel Fromager,        Univ. Strasbourg,             France      (MC-srDFT)
  Bin Gao,                  UiT The Arctic U. of Norway,  Norway      (Gen1Int library)
  Andre S. P. Gomes,        CNRS/Universite de Lille,     France      (Frozen density embedding)
  Christof Haettig,         Ruhr-University Bochum,       Germany     (CC module)
  Kasper Hald,              Aarhus University,            Denmark     (CC module)
  Asger Halkier,            Aarhus University,            Denmark     (CC module)
  Frederik Beyer Hansen,    University of Copenhagen,     Denmark     (Parallel AO-SOPPA)
  Erik D. Hedegaard,        Univ. of Southern Denmark,    Denmark     (Polarizable embedding, QM/MM, and MC-srDFT)
  Hanne Heiberg,            University of Oslo,           Norway      (Geometry analysis, selected one-electron integrals)
  Trygve Helgaker,          University of Oslo,           Norway      (DALTON; ABACUS, ERI, DFT modules, London, and much more)
  Alf Christian Hennum,     University of Oslo,           Norway      (Parity violation)
  Hinne Hettema,            University of Auckland,       New Zealand (Quadratic response in RESPONS; SIRIUS supersymmetry)
  Eirik Hjertenaes,         NTNU,                         Norway      (Cholesky decomposition)
  Pi A. B. Haase,           University of Copenhagen,     Denmark     (Triplet AO-SOPPA)
  Maria Francesca Iozzi,    University of Oslo,           Norway      (RPA)
  Christoph Jacob           TU Braunschweig               Germany     (Frozen density embedding)
  Brano Jansik              Technical Univ. of Ostrava    Czech Rep.  (DFT cubic response)
  Hans Joergen Aa. Jensen,  Univ. of Southern Denmark,    Denmark     (DALTON; SIRIUS, RESPONS, ABACUS, MC-srDFT, and much more)
  Dan Jonsson,              UiT The Arctic U. of Norway,  Norway      (Cubic response in RESPONS module)
  Poul Joergensen,          Aarhus University,            Denmark     (RESPONS, ABACUS, and CC modules)
  Maciej Kaminski,          University of Warsaw,         Poland      (CPPh in RESPONS)
  Joanna Kauczor,           Linkoeping University,        Sweden      (Complex polarization propagator (CPP) module)
  Sheela Kirpekar,          Univ. of Southern Denmark,    Denmark     (Mass-velocity & Darwin integrals)
  Erik Kjellgren,           Univ. of Southern Denmark,    Denmark     (MC-srDFT)
  Wim Klopper,              KIT Karlsruhe,                Germany     (R12 code in CC, SIRIUS, and ABACUS modules)
  Stefan Knecht,            ETH Zurich,                   Switzerland (Parallel CI and MCSCF, MC-srDFT)
  Rika Kobayashi,           Australian National Univ.,    Australia   (DIIS in CC, London in MCSCF)
  Henrik Koch,              NTNU,                         Norway      (CC module, Cholesky decomposition)
  Jacob Kongsted,           Univ. of Southern Denmark,    Denmark     (Polarizable embedding, polarizable density embedding, QM/MM)
  Andrea Ligabue,           University of Modena,         Italy       (CTOCD, AOSOPPA)
  Nanna H. List             Univ. of Southern Denmark,    Denmark     (Polarizable embedding)
  Ola B. Lutnaes,           University of Oslo,           Norway      (DFT Hessian)
  Juan I. Melo,             University of Buenos Aires,   Argentina   (LRESC, Relativistic Effects on NMR Shieldings)
  Kurt V. Mikkelsen,        University of Copenhagen,     Denmark     (MC-SCRF and QM/MM)
  Rolf H. Myhre,            NTNU,                         Norway      (Subsystems and CC3)
  Christian Neiss,          Univ. Erlangen-Nuernberg,     Germany     (CCSD(R12))
  Christian B. Nielsen,     University of Copenhagen,     Denmark     (QM/MM)
  Patrick Norman,           KTH Stockholm,                Sweden      (Cubic response and complex frequency response in RESPONS)
  Jeppe Olsen,              Aarhus University,            Denmark     (SIRIUS CI/density modules)
  Jogvan Magnus H. Olsen,   Aarhus University,            Denmark     (Polarizable embedding and polarizable density embedding)
  Anders Osted,             Copenhagen University,        Denmark     (QM/MM)
  Martin J. Packer,         University of Sheffield,      UK          (SOPPA)
  Filip Pawlowski,          Kazimierz Wielki University,  Poland      (CC3)
  Morten N. Pedersen,       Univ. of Southern Denmark,    Denmark     (Polarizable embedding)
  Thomas B. Pedersen,       University of Oslo,           Norway      (Cholesky decomposition)
  Patricio F. Provasi,      University of Northeastern,   Argentina   (Analysis of coupling constants in localized orbitals)
  Peter Reinholdt,          Univ. of Southern Denmark,    Denmark     (Polarizable embedding and polarizable density embedding)
  Zilvinas Rinkevicius,     KTH Stockholm,                Sweden      (open-shell DFT, ESR)
  Elias Rudberg,            KTH Stockholm,                Sweden      (DFT grid and basis info)
  Torgeir A. Ruden,         University of Oslo,           Norway      (Numerical derivatives in ABACUS)
  Kenneth Ruud,             UiT The Arctic U. of Norway,  Norway      (DALTON; ABACUS magnetic properties and much more)
  Pawel Salek,              KTH Stockholm,                Sweden      (DALTON; DFT code)
  Claire C. M. Samson       University of Karlsruhe       Germany     (Boys localization, r12 integrals in ERI)
  Alfredo Sanchez de Meras, University of Valencia,       Spain       (CC module, Cholesky decomposition)
  Trond Saue,               Paul Sabatier University,     France      (direct Fock matrix construction)
  Stephan P. A. Sauer,      University of Copenhagen,     Denmark     (SOPPA(CCSD), SOPPA prop., AOSOPPA, vibrational g-factors)
  Bernd Schimmelpfennig,    Forschungszentrum Karlsruhe,  Germany     (AMFI module)
  Anna K. Schnack-Petersen, University of Copenhagen,     Denmark     (RPA(D) and HRPA(D) properties in AOSOPPA)
  Kristian Sneskov,         Aarhus University,            Denmark     (Polarizable embedding, QM/MM)
  Arnfinn H. Steindal,      UiT The Arctic U. of Norway,  Norway      (parallel QM/MM, polarizable embedding)
  Casper Steinmann,         Aalborg University,           Denmark     (QFIT, polarizable embedding)
  K. O. Sylvester-Hvid,     University of Copenhagen,     Denmark     (MC-SCRF)
  Peter R. Taylor,          VLSCI/Univ. of Melbourne,     Australia   (Symmetry handling ABACUS, integral transformation)
  Andrew M. Teale,          University of Nottingham,     England     (DFT-AC, DFT-D)
  David P. Tew,             University of Bristol,        England     (CCSD(R12))
  Julien Toulouse,          Sorbonne Univ.,               France      (MC-srDFT)
  Olav Vahtras,             KTH Stockholm,                Sweden      (Triplet response, spin-orbit, ESR, TDDFT, open-shell DFT)
  Lucas Visscher,           Vrije Universiteit Amsterdam, Netherlands (Frozen density embedding)
  David J. Wilson,          La Trobe University,          Australia   (DFT Hessian and DFT magnetizabilities)
  Hans Agren,               KTH Stockholm,                Sweden      (SIRIUS module, RESPONS, MC-SCRF solvation)
 --------------------------------------------------------------------------------

     Date and time (Linux)  : Thu May  8 15:00:32 2025
     Host name              : xm046                                   

 * Work memory size             :  1310720000 =  9.766 gigabytes.

 * Directories for basis set searches:
   1) /gpfs/projects/rjh/adrian/summer2025/beta_projects/raw_data/NLO/dalton/hf/n4/dipole
   2) /gpfs/projects/rjh/adrian/dalton/build/basis


Compilation information
-----------------------

 Who compiled             | ahurtado
 Host                     | milan2
 System                   | Linux-5.14.0-427.42.1.el9_4.x86_64
 CMake generator          | Unix Makefiles
 Processor                | x86_64
 64-bit integers          | OFF
 MPI                      | ON
 Fortran compiler         | /gpfs/software/openmpi/milan/gcc13.2/4.1.6/bin/mpi
                          | f90
 Fortran compiler version | GNU Fortran (GCC) 13.2.0
 C compiler               | /gpfs/software/openmpi/milan/gcc13.2/4.1.6/bin/mpi
                          | cc
 C compiler version       | gcc (GCC) 13.2.0
 C++ compiler             | /gpfs/software/openmpi/milan/gcc13.2/4.1.6/bin/mpi
                          | cxx
 C++ compiler version     | unknown
 BLAS                     | /gpfs/software/intel/oneAPI/2024_2/mkl/2024.2/lib/
                          | intel64/libmkl_gf_lp64.so;/gpfs/software/intel/one
                          | API/2024_2/mkl/2024.2/lib/intel64/libmkl_sequentia
                          | l.so;/gpfs/software/intel/oneAPI/2024_2/mkl/2024.2
                          | /lib/intel64/libmkl_core.so;/usr/lib64/libpthread.
                          | a;/usr/lib64/libm.so
 LAPACK                   | /gpfs/software/intel/oneAPI/2024_2/mkl/2024.2/lib/
                          | intel64/libmkl_lapack95_lp64.a;/gpfs/software/inte
                          | l/oneAPI/2024_2/mkl/2024.2/lib/intel64/libmkl_gf_l
                          | p64.so
 Static linking           | OFF
 Last Git revision        | 66052b3af5ea7225e31178bf9a8b031913c72190
 Git branch               | (HEAD detached at Dalton2020.0)
 Configuration time       | 2025-04-10 16:02:31.569498

 * MPI parallel run using 96 processes.


   Content of the .dal input file
 ----------------------------------

**DALTON INPUT
.RUN RESPONSE
.DIRECT
**WAVE FUNCTIONS
.HF
**PROPERTIES
**RESPONSE
*QUADRA
.DIPLEN
.FREQUENCIES
2
0.0 0.0233
**END OF DALTON INPUT


   Content of the .mol file
 ----------------------------

BASIS
aug-cc-pVDZ
blah
blah
Atomtype=4 Angstrom Charge=0 Nosymmetry
Charge=6 Atoms=8
C_a -1.1882749990853696 5.117256998104514 0.0
C_b -1.5969329996265353 3.809735999842726 0.0
C_c -0.6564090019655506 2.7190129991747667 0.0
C_d -0.9857789998795103 1.387195998766701 0.0
C_e 0.0 0.33539000253089535 0.0
C_f -0.2866469975212757 -1.0046079981775466 0.0
C_g 0.7451960001128884 -2.0162560006291397 0.0
C_h 0.49348400143119636 -3.346346999604479 0.0
Charge=7 Atoms=2
N_a -1.9995219990328295 6.216471001666405 0.0
N_b 1.57848899891635 -4.318030999345519 0.0
Charge=8 Atoms=2
O_a 2.744088997946027 -3.913927002627481 0.0
O_b 1.2323250012939346 -5.50623099814482 0.0
Charge=1 Atoms=10
H_a -0.11499899751206023 5.345406000328604 0.0
H_b -2.670389000828054 3.577750002457105 0.0
H_c -3.0058400016160234 6.118605000075728 0.0
H_d -1.6131520006696491 7.147926002625104 0.0
H_e 0.4128139996006046 2.9826160013713494 0.0
H_f -2.0460389989386774 1.0977839974019534 0.0
H_g 1.0580160019302323 0.6387760023731218 0.0
H_h -1.3358889978770827 -1.3294699989350738 0.0
H_i 1.795708999460371 -1.7003540019438161 0.0
H_j -0.492141997441393 -3.815153001736331 0.0


       *******************************************************************
       *********** Output from DALTON general input processing ***********
       *******************************************************************

 --------------------------------------------------------------------------------
   Overall default print level:    0
   Print level for DALTON.STAT:    1

    Parallel calculation using MPI
    AO-direct calculation (in sections where implemented)
    HERMIT 1- and 2-electron integral sections will be executed
    "Old" integral transformation used (limited to max 255 basis functions)
    Wave function sections will be executed (SIRIUS module)
    Dynamic molecular response properties section will be executed (RESPONSE module)
 --------------------------------------------------------------------------------


   ****************************************************************************
   *************** Output of molecule and basis set information ***************
   ****************************************************************************


    The two title cards from your ".mol" input:
    ------------------------------------------------------------------------
 1: blah                                                                    
 2: blah                                                                    
    ------------------------------------------------------------------------

  Coordinates are entered in Angstrom and converted to atomic units.
          - Conversion factor : 1 bohr = 0.52917721 A

  Atomic type no.    1
  --------------------
  Nuclear charge:   6.00000
  Number of symmetry independent centers:    8
  Number of basis sets to read;    2
  Basis set file used for this atomic type with Z =   6 :
     "/gpfs/projects/rjh/adrian/dalton/build/basis/aug-cc-pVDZ"

  Atomic type no.    2
  --------------------
  Nuclear charge:   7.00000
  Number of symmetry independent centers:    2
  Number of basis sets to read;    2
  Basis set file used for this atomic type with Z =   7 :
     "/gpfs/projects/rjh/adrian/dalton/build/basis/aug-cc-pVDZ"

  Atomic type no.    3
  --------------------
  Nuclear charge:   8.00000
  Number of symmetry independent centers:    2
  Number of basis sets to read;    2
  Basis set file used for this atomic type with Z =   8 :
     "/gpfs/projects/rjh/adrian/dalton/build/basis/aug-cc-pVDZ"

  Atomic type no.    4
  --------------------
  Nuclear charge:   1.00000
  Number of symmetry independent centers:   10
  Number of basis sets to read;    2
  Basis set file used for this atomic type with Z =   1 :
     "/gpfs/projects/rjh/adrian/dalton/build/basis/aug-cc-pVDZ"


                         SYMGRP: Point group information
                         -------------------------------

@    Point group: C1 


                                 Isotopic Masses
                                 ---------------

                           C_a        12.000000
                           C_b        12.000000
                           C_c        12.000000
                           C_d        12.000000
                           C_e        12.000000
                           C_f        12.000000
                           C_g        12.000000
                           C_h        12.000000
                           N_a        14.003074
                           N_b        14.003074
                           O_a        15.994915
                           O_b        15.994915
                           H_a         1.007825
                           H_b         1.007825
                           H_c         1.007825
                           H_d         1.007825
                           H_e         1.007825
                           H_f         1.007825
                           H_g         1.007825
                           H_h         1.007825
                           H_i         1.007825
                           H_j         1.007825

                       Total mass:   166.074228 amu
                       Natural abundance:  90.284 %

 Center-of-mass coordinates (a.u.):    0.090208   -0.225905    0.000000
 Center-of-mass coordinates (Angs):    0.047736   -0.119544    0.000000


  Atoms and basis sets
  --------------------

  Number of atom types :    4
  Total number of atoms:   22

  Basis set used is "aug-cc-pVDZ" from the basis set library.

  label    atoms   charge   prim   cont     basis
  ----------------------------------------------------------------------
  C_          8    6.0000    35    23      [10s5p2d|4s3p2d]                                   
  N_          2    7.0000    35    23      [10s5p2d|4s3p2d]                                   
  O_          2    8.0000    35    23      [10s5p2d|4s3p2d]                                   
  H_         10    1.0000    11     9      [5s2p|3s2p]                                        
  ----------------------------------------------------------------------
  total:     22   88.0000   530   366
  ----------------------------------------------------------------------
  Spherical harmonic basis used.

  Threshold for neglecting AO integrals:  1.00D-12

  Max    interatomic separation is   12.9701 Angstrom (   24.5100 Bohr)
  between atoms   16 and   12, "H_d   " and "O_b   ".

  Min HX interatomic separation is    1.0084 Angstrom (    1.9056 Bohr)

  Min YX interatomic separation is    1.2337 Angstrom (    2.3313 Bohr)


  Bond distances (Angstrom):
  --------------------------

                  atom 1     atom 2       distance
                  ------     ------       --------
  bond distance:  C_b        C_a          1.369895
  bond distance:  C_c        C_b          1.440230
  bond distance:  C_d        C_c          1.371941
  bond distance:  C_e        C_d          1.441546
  bond distance:  C_f        C_e          1.370314
  bond distance:  C_g        C_f          1.445037
  bond distance:  C_h        C_g          1.353699
  bond distance:  N_a        C_a          1.366160
  bond distance:  N_b        C_h          1.456505
  bond distance:  O_a        N_b          1.233663
  bond distance:  O_b        N_b          1.237598
  bond distance:  H_a        C_a          1.097257
  bond distance:  H_b        C_b          1.098237
  bond distance:  H_c        N_a          1.011066
  bond distance:  H_d        N_a          1.008410
  bond distance:  H_e        C_c          1.101238
  bond distance:  H_f        C_d          1.099050
  bond distance:  H_g        C_e          1.100655
  bond distance:  H_h        C_f          1.098382
  bond distance:  H_i        C_g          1.096983
  bond distance:  H_j        C_h          1.091438


  Bond angles (degrees):
  ----------------------

                  atom 1     atom 2     atom 3         angle
                  ------     ------     ------         -----
  bond angle:     C_b        C_a        N_a          126.215
  bond angle:     C_b        C_a        H_a          119.357
  bond angle:     N_a        C_a        H_a          114.427
  bond angle:     C_a        C_b        C_c          121.873
  bond angle:     C_a        C_b        H_b          119.551
  bond angle:     C_c        C_b        H_b          118.576
  bond angle:     C_b        C_c        C_d          125.338
  bond angle:     C_b        C_c        H_e          116.922
  bond angle:     C_d        C_c        H_e          117.740
  bond angle:     C_c        C_d        C_e          122.965
  bond angle:     C_c        C_d        H_f          119.159
  bond angle:     C_e        C_d        H_f          117.876
  bond angle:     C_d        C_e        C_f          124.781
  bond angle:     C_d        C_e        H_g          117.144
  bond angle:     C_f        C_e        H_g          118.075
  bond angle:     C_e        C_f        C_g          122.359
  bond angle:     C_e        C_f        H_h          119.278
  bond angle:     C_g        C_f        H_h          118.363
  bond angle:     C_f        C_g        C_h          123.718
  bond angle:     C_f        C_g        H_i          118.830
  bond angle:     C_h        C_g        H_i          117.453
  bond angle:     C_g        C_h        N_b          121.130
  bond angle:     C_g        C_h        H_j          126.154
  bond angle:     N_b        C_h        H_j          112.716
  bond angle:     C_a        N_a        H_c          120.874
  bond angle:     C_a        N_a        H_d          121.043
  bond angle:     H_c        N_a        H_d          118.083
  bond angle:     C_h        N_b        O_a          119.033
  bond angle:     C_h        N_b        O_b          115.604
  bond angle:     O_a        N_b        O_b          125.364




 Principal moments of inertia (u*A**2) and principal axes
 --------------------------------------------------------

   IA      70.354815         -0.316751    0.948509    0.000000
   IB    2757.102656          0.948509    0.316751    0.000000
   IC    2827.457470          0.000000    0.000000    1.000000


 Rotational constants
 --------------------

@    The molecule is planar.

               A                   B                   C

           7183.2896            183.3008            178.7397 MHz
            0.239609            0.006114            0.005962 cm-1


@  Nuclear repulsion energy :  574.625117125708 Hartree


                     .---------------------------------------.
                     | Starting in Integral Section (HERMIT) |
                     `---------------------------------------'



 ***************************************************************************************
 ****************** Output from **INTEGRALS input processing (HERMIT) ******************
 ***************************************************************************************


 - Using defaults, no **INTEGRALS input found

 Default print level:        1

 Calculation of one-electron Hamiltonian integrals.

 Center of mass  (bohr):      0.090207604024     -0.225905365811      0.000000000000
 Operator center (bohr):      0.000000000000      0.000000000000      0.000000000000
 Gauge origin    (bohr):      0.000000000000      0.000000000000      0.000000000000
 Dipole origin   (bohr):      0.000000000000      0.000000000000      0.000000000000


     ************************************************************************
     ************************** Output from HERINT **************************
     ************************************************************************



                      Nuclear contribution to dipole moments
                      --------------------------------------

                 au               Debye          C m (/(10**-30)

      x     -0.00001508        -0.00003833        -0.00012785
      y     -0.00002265        -0.00005757        -0.00019203
      z      0.00000000         0.00000000         0.00000000


  Time used in ONEDRV     is       0.29 seconds
  Time used in QUADRUP    is       0.12 seconds
  Time used in GABGEN     is       0.25 seconds
  Total CPU  time used in HERMIT:   1.15 seconds
  Total wall time used in HERMIT:   1.18 seconds


                        .----------------------------------.
                        | End of Integral Section (HERMIT) |
                        `----------------------------------'



                   .--------------------------------------------.
                   | Starting in Wave Function Section (SIRIUS) |
                   `--------------------------------------------'


 *** Output from Huckel module :

     Using EWMO model:          T
     Using EHT  model:          F
     Number of Huckel orbitals each symmetry:   70

 EWMO - Energy Weighted Maximum Overlap - is a Huckel type method,
        which normally is better than Extended Huckel Theory.
 Reference: Linderberg and Ohrn, Propagators in Quantum Chemistry (Wiley, 1973)

 Huckel EWMO eigenvalues for symmetry :  1
          -20.684751     -20.683481     -15.677073     -15.674988     -11.359146
          -11.358653     -11.356154     -11.352584     -11.347974     -11.346240
          -11.345424     -11.345374      -1.964162      -1.788082      -1.734786
           -1.596046      -1.447484      -1.387161      -1.184566      -1.157865
           -1.049213      -0.965971      -0.906339      -0.851949      -0.832685
           -0.754031      -0.750101      -0.745427      -0.670108      -0.663157
           -0.633145      -0.596679      -0.585930      -0.560104      -0.541106
           -0.538394      -0.508141      -0.496618      -0.484080      -0.482371
           -0.461805      -0.453057      -0.387938      -0.383238      -0.333745
           -0.273894      -0.234058      -0.229197      -0.209688      -0.201310
           -0.197331      -0.190415      -0.166296      -0.142751      -0.138050
           -0.131383      -0.129230      -0.128854      -0.126770      -0.126476
           -0.124464      -0.123265      -0.109230      -0.103580      -0.097345
           -0.092683      -0.088052      -0.086885      -0.083314      -0.079948

 **********************************************************************
 *SIRIUS* a direct, restricted step, second order MCSCF program       *
 **********************************************************************

 
     Date and time (Linux)  : Thu May  8 15:00:36 2025
     Host name              : xm046                                   

 Title lines from ".mol" input file:
     blah                                                                    
     blah                                                                    

 Print level on unit LUPRI =   2 is   0
 Print level on unit LUW4  =   2 is   5

@    Restricted, closed shell Hartree-Fock calculation.

@    Time-dependent Hartree-Fock calculation (random phase approximation).
 Fock matrices are calculated directly and in parallel without use of integrals on disk.

 Initial molecular orbitals are obtained according to
 ".MOSTART EWMO  " input option

     Wave function specification
     ============================
@    Wave function type        --- HF ---
@    Number of closed shell electrons          88
@    Number of electrons in active shells       0
@    Total charge of the molecule               0

@    Spin multiplicity and 2 M_S                1         0
@    Total number of symmetries                 1 (point group: C1 )
@    Reference state symmetry                   1 (irrep name : A  )

     Orbital specifications
     ======================
@    Abelian symmetry species          All |    1
@                                          |  A  
                                       --- |  ---
@    Occupied SCF orbitals              44 |   44
@    Secondary orbitals                322 |  322
@    Total number of orbitals          366 |  366
@    Number of basis functions         366 |  366

     Optimization information
     ========================
@    Number of configurations                 1
@    Number of orbital rotations          14168
     ------------------------------------------
@    Total number of variables            14169

     Maximum number of Fock   iterations      0
     Maximum number of DIIS   iterations     60
     Maximum number of QC-SCF iterations     60
     Threshold for SCF convergence     1.00D-05

    INFORMATION: Switched to "new" integral transformation (from 1988 ;-) )
    because more than 255 basis functions.


 ***********************************************
 ***** DIIS acceleration of SCF iterations *****
 ***********************************************

 C1-DIIS algorithm; max error vectors =    8

 Iter      Total energy        Error norm    Delta(E)  DIIS dim.
 -----------------------------------------------------------------------------
   1  Screening settings (-IFTHRS, JTDIIS, DIFDEN, times)   -9    1    T  5.87D+00  5.91D+00
@  1    -564.983663520        5.80712D+00   -5.65D+02    1
      Virial theorem: -V/T =      2.006943
@    MULPOP   C_a     0.91; C_b    -0.12; C_c     0.39; C_d     0.23; C_e     0.49; C_f     0.19; C_g     0.15; C_h     0.74; N_a    -0.20; N_b     1.11; 
@             O_a    -1.14; O_b    -1.13; H_a    -0.19; H_b    -0.23; H_c     0.07; H_d     0.06; H_e    -0.22; H_f    -0.22; H_g    -0.24; H_h    -0.22; 
@             H_i    -0.24; H_j    -0.19; 
   1  Level shift: doubly occupied orbital energies shifted by -2.00D-01
 -----------------------------------------------------------------------------
   2  Screening settings (-IFTHRS, JTDIIS, DIFDEN, times)   -9    2    T  1.31D+00  1.32D+00
@  2    -566.876421732        2.68723D+00   -1.89D+00    2
      Virial theorem: -V/T =      2.002249
@    MULPOP   C_a     0.60; C_b     0.69; C_c     0.37; C_d     0.90; C_e     0.48; C_f     0.87; C_g     0.48; C_h     0.51; N_a    -0.18; N_b     0.24; 
@             O_a    -0.49; O_b    -0.43; H_a    -0.43; H_b    -0.55; H_c    -0.01; H_d     0.04; H_e    -0.52; H_f    -0.54; H_g    -0.55; H_h    -0.53; 
@             H_i    -0.54; H_j    -0.40; 
   2  Level shift: doubly occupied orbital energies shifted by -1.00D-01
 -----------------------------------------------------------------------------
   3  Screening settings (-IFTHRS, JTDIIS, DIFDEN, times)   -9    3    T  1.29D+00  1.30D+00
@  3    -567.243024205        6.60449D-01   -3.67D-01    3
      Virial theorem: -V/T =      2.001063
@    MULPOP   C_a     0.76; C_b     0.73; C_c     0.40; C_d     0.88; C_e     0.42; C_f     0.85; C_g     0.53; C_h     0.96; N_a    -0.30; N_b     0.78; 
@             O_a    -0.84; O_b    -0.89; H_a    -0.40; H_b    -0.59; H_c    -0.03; H_d     0.02; H_e    -0.57; H_f    -0.58; H_g    -0.58; H_h    -0.58; 
@             H_i    -0.59; H_j    -0.39; 
   3  Level shift: doubly occupied orbital energies shifted by -2.50D-02
 -----------------------------------------------------------------------------
   4  Screening settings (-IFTHRS, JTDIIS, DIFDEN, times)   -9    4    T  1.27D+00  1.28D+00
@  4    -567.276065323        2.26493D-01   -3.30D-02    4
      Virial theorem: -V/T =      2.002725
@    MULPOP   C_a     0.84; C_b     0.75; C_c     0.39; C_d     0.91; C_e     0.42; C_f     0.89; C_g     0.55; C_h     0.96; N_a    -0.31; N_b     0.62; 
@             O_a    -0.82; O_b    -0.82; H_a    -0.38; H_b    -0.62; H_c    -0.06; H_d    -0.00; H_e    -0.59; H_f    -0.59; H_g    -0.59; H_h    -0.58; 
@             H_i    -0.58; H_j    -0.36; 
   4  Level shift: doubly occupied orbital energies shifted by -1.25D-02
 -----------------------------------------------------------------------------
   5  Screening settings (-IFTHRS, JTDIIS, DIFDEN, times)   -9    5    T  1.25D+00  1.26D+00
@  5    -567.282322754        8.46652D-02   -6.26D-03    5
      Virial theorem: -V/T =      2.002242
@    MULPOP   C_a     0.79; C_b     0.74; C_c     0.36; C_d     0.95; C_e     0.37; C_f     0.93; C_g     0.45; C_h     1.01; N_a    -0.33; N_b     0.65; 
@             O_a    -0.82; O_b    -0.85; H_a    -0.38; H_b    -0.61; H_c    -0.05; H_d     0.00; H_e    -0.58; H_f    -0.58; H_g    -0.57; H_h    -0.57; 
@             H_i    -0.57; H_j    -0.35; 
 -----------------------------------------------------------------------------
   6  Screening settings (-IFTHRS, JTDIIS, DIFDEN, times)  -13    6    F  1.39D+00  1.40D+00
@  6    -567.283675810        3.91679D-02   -1.35D-03    6
      Virial theorem: -V/T =      2.002086
@    MULPOP   C_a     0.79; C_b     0.74; C_c     0.35; C_d     0.97; C_e     0.36; C_f     0.94; C_g     0.44; C_h     1.01; N_a    -0.33; N_b     0.63; 
@             O_a    -0.82; O_b    -0.83; H_a    -0.37; H_b    -0.61; H_c    -0.05; H_d     0.00; H_e    -0.57; H_f    -0.57; H_g    -0.57; H_h    -0.57; 
@             H_i    -0.57; H_j    -0.35; 
 -----------------------------------------------------------------------------
   7  Screening settings (-IFTHRS, JTDIIS, DIFDEN, times)  -13    7    T  1.35D+00  1.36D+00
@  7    -567.284012143        1.80775D-02   -3.36D-04    7
      Virial theorem: -V/T =      2.002125
@    MULPOP   C_a     0.79; C_b     0.74; C_c     0.35; C_d     0.97; C_e     0.34; C_f     0.96; C_g     0.42; C_h     1.03; N_a    -0.34; N_b     0.62; 
@             O_a    -0.81; O_b    -0.83; H_a    -0.37; H_b    -0.61; H_c    -0.05; H_d    -0.00; H_e    -0.57; H_f    -0.57; H_g    -0.57; H_h    -0.57; 
@             H_i    -0.57; H_j    -0.35; 
 -----------------------------------------------------------------------------
   8  Screening settings (-IFTHRS, JTDIIS, DIFDEN, times)  -13    8    T  1.34D+00  1.35D+00
@  8    -567.284074749        7.10193D-03   -6.26D-05    8
      Virial theorem: -V/T =      2.002125
@    MULPOP   C_a     0.79; C_b     0.73; C_c     0.35; C_d     0.97; C_e     0.34; C_f     0.97; C_g     0.41; C_h     1.03; N_a    -0.34; N_b     0.62; 
@             O_a    -0.81; O_b    -0.83; H_a    -0.37; H_b    -0.61; H_c    -0.06; H_d    -0.00; H_e    -0.57; H_f    -0.57; H_g    -0.57; H_h    -0.57; 
@             H_i    -0.57; H_j    -0.35; 
 -----------------------------------------------------------------------------
   9  Screening settings (-IFTHRS, JTDIIS, DIFDEN, times)  -13    9    T  1.34D+00  1.35D+00
@  9    -567.284084143        2.43830D-03   -9.39D-06    8
      Virial theorem: -V/T =      2.002115
@    MULPOP   C_a     0.79; C_b     0.73; C_c     0.35; C_d     0.97; C_e     0.34; C_f     0.97; C_g     0.41; C_h     1.03; N_a    -0.34; N_b     0.62; 
@             O_a    -0.81; O_b    -0.83; H_a    -0.37; H_b    -0.61; H_c    -0.06; H_d    -0.00; H_e    -0.57; H_f    -0.57; H_g    -0.57; H_h    -0.57; 
@             H_i    -0.57; H_j    -0.35; 
 -----------------------------------------------------------------------------
  10  Screening settings (-IFTHRS, JTDIIS, DIFDEN, times)  -13   10    T  1.33D+00  1.34D+00
@ 10    -567.284085696        1.22259D-03   -1.55D-06    8
      Virial theorem: -V/T =      2.002115
@    MULPOP   C_a     0.79; C_b     0.73; C_c     0.35; C_d     0.97; C_e     0.34; C_f     0.96; C_g     0.41; C_h     1.03; N_a    -0.34; N_b     0.62; 
@             O_a    -0.81; O_b    -0.83; H_a    -0.37; H_b    -0.61; H_c    -0.06; H_d    -0.00; H_e    -0.57; H_f    -0.57; H_g    -0.57; H_h    -0.57; 
@             H_i    -0.57; H_j    -0.35; 
 -----------------------------------------------------------------------------
  11  Screening settings (-IFTHRS, JTDIIS, DIFDEN, times)  -13   11    T  1.32D+00  1.33D+00
@ 11    -567.284086159        6.34610D-04   -4.62D-07    8
      Virial theorem: -V/T =      2.002116
@    MULPOP   C_a     0.79; C_b     0.73; C_c     0.35; C_d     0.97; C_e     0.34; C_f     0.96; C_g     0.41; C_h     1.03; N_a    -0.34; N_b     0.62; 
@             O_a    -0.81; O_b    -0.83; H_a    -0.37; H_b    -0.61; H_c    -0.06; H_d    -0.00; H_e    -0.57; H_f    -0.57; H_g    -0.57; H_h    -0.57; 
@             H_i    -0.57; H_j    -0.35; 
 -----------------------------------------------------------------------------
  12  Screening settings (-IFTHRS, JTDIIS, DIFDEN, times)  -13   12    T  1.31D+00  1.33D+00
@ 12    -567.284086292        1.69530D-04   -1.34D-07    8
      Virial theorem: -V/T =      2.002115
@    MULPOP   C_a     0.79; C_b     0.73; C_c     0.35; C_d     0.97; C_e     0.34; C_f     0.96; C_g     0.41; C_h     1.03; N_a    -0.34; N_b     0.62; 
@             O_a    -0.81; O_b    -0.83; H_a    -0.37; H_b    -0.61; H_c    -0.06; H_d    -0.00; H_e    -0.57; H_f    -0.57; H_g    -0.57; H_h    -0.57; 
@             H_i    -0.57; H_j    -0.35; 
 -----------------------------------------------------------------------------
  13  Screening settings (-IFTHRS, JTDIIS, DIFDEN, times)  -13   13    T  1.30D+00  1.31D+00
@ 13    -567.284086301        7.93630D-05   -8.88D-09    8
      Virial theorem: -V/T =      2.002115
@    MULPOP   C_a     0.79; C_b     0.73; C_c     0.35; C_d     0.97; C_e     0.34; C_f     0.96; C_g     0.41; C_h     1.03; N_a    -0.34; N_b     0.62; 
@             O_a    -0.81; O_b    -0.83; H_a    -0.37; H_b    -0.61; H_c    -0.06; H_d    -0.00; H_e    -0.57; H_f    -0.57; H_g    -0.57; H_h    -0.57; 
@             H_i    -0.57; H_j    -0.35; 
 -----------------------------------------------------------------------------
  14  Screening settings (-IFTHRS, JTDIIS, DIFDEN, times)  -13   14    T  1.28D+00  1.29D+00
@ 14    -567.284086302        2.36115D-05   -9.82D-10    8
      Virial theorem: -V/T =      2.002115
@    MULPOP   C_a     0.79; C_b     0.73; C_c     0.35; C_d     0.97; C_e     0.34; C_f     0.96; C_g     0.41; C_h     1.03; N_a    -0.34; N_b     0.62; 
@             O_a    -0.81; O_b    -0.83; H_a    -0.37; H_b    -0.61; H_c    -0.06; H_d    -0.00; H_e    -0.57; H_f    -0.57; H_g    -0.57; H_h    -0.57; 
@             H_i    -0.57; H_j    -0.35; 
 -----------------------------------------------------------------------------
  15  Screening settings (-IFTHRS, JTDIIS, DIFDEN, times)  -13   15    T  1.26D+00  1.27D+00
@ 15    -567.284086302        9.98047D-06   -9.73D-11    8

@ *** DIIS converged in  15 iterations !
@     Converged SCF energy, gradient:   -567.284086302114    9.98D-06
    - total time used in SIRFCK :              0.00 seconds


 *** SCF orbital energy analysis ***

 Only the 20 lowest virtual orbital energies printed in each symmetry.

 Number of electrons :   88
 Orbital occupations :   44

 Sym       Hartree-Fock orbital energies

1 A     -20.59088930   -20.58818440   -15.83877277   -15.61394379   -11.32557651
        -11.28929054   -11.28539044   -11.27992418   -11.27875618   -11.25425234
        -11.24733118   -11.24484541    -1.57715805    -1.37451716    -1.25438186
         -1.13821567    -1.11074039    -1.06617084    -1.00544438    -0.93853420
         -0.85675044    -0.80769483    -0.78317714    -0.77784125    -0.73498620
         -0.73064922    -0.70841138    -0.69012732    -0.68962623    -0.64406546
         -0.63752504    -0.59516490    -0.57024429    -0.55998626    -0.53738955
         -0.53471454    -0.51780643    -0.48394813    -0.47518477    -0.47122366
         -0.43453468    -0.43272507    -0.35841974    -0.26961234     0.01627357
          0.02594685     0.03029179     0.03690627     0.04274869     0.05089354
          0.06270951     0.07493654     0.08681886     0.08944679     0.10047511
          0.10147988     0.10400722     0.10411717     0.11220966     0.11524812
          0.11757155     0.11765456     0.11923771     0.12663611

    E(LUMO) :     0.01627357 au (symmetry 1)
  - E(HOMO) :    -0.26961234 au (symmetry 1)
  ------------------------------------------
    gap     :     0.28588590 au

 --- Writing SIRIFC interface file

 CPU and wall time for SCF :      29.994      30.297


                       .-----------------------------------.
                       | --- Final results from SIRIUS --- |
                       `-----------------------------------'


@    Spin multiplicity:           1
@    Spatial symmetry:            1 ( irrep  A   in C1  )
@    Total charge of molecule:    0

@    Final HF energy:            -567.284086302114                 
@    Nuclear repulsion:           574.625117125708
@    Electronic energy:         -1141.909203427821

@    Final gradient norm:           0.000009980468

 
     Date and time (Linux)  : Thu May  8 15:01:06 2025
     Host name              : xm046                                   

File label for MO orbitals:   8May25   FOCKDIIS

 (Only coefficients > 0.0100 are printed.)

 Molecular orbitals for symmetry species 1  (A  )
 ------------------------------------------------

    Orbital        35       36       37       38       39       40       41
   2 C_a :1s     0.0000  -0.0396   0.0135   0.0000  -0.0065   0.0018   0.0000
   3 C_a :1s    -0.0000  -0.1316  -0.0749  -0.0000  -0.0008   0.0175   0.0000
   4 C_a :1s     0.0000  -0.0841  -0.0397   0.0000   0.0625  -0.0476   0.0000
   5 C_a :2px    0.0000   0.1483  -0.0484  -0.0000   0.0012  -0.0008   0.0000
   6 C_a :2py    0.0000   0.1006  -0.0168   0.0000   0.0110  -0.0028   0.0000
   7 C_a :2pz    0.4286   0.0000   0.0000  -0.0501   0.0000  -0.0000  -0.0167
   8 C_a :2px    0.0000   0.0574   0.0214   0.0000  -0.0043  -0.0036  -0.0000
   9 C_a :2py   -0.0000  -0.0482   0.0651   0.0000   0.0045  -0.0077  -0.0000
  10 C_a :2pz   -0.0835  -0.0000  -0.0000   0.0131  -0.0000   0.0000  -0.0071
  11 C_a :2px    0.0000   0.0009   0.0014  -0.0000  -0.0205   0.0071   0.0000
  12 C_a :2py    0.0000   0.0306   0.0088  -0.0000   0.0207   0.0141  -0.0000
  14 C_a :3d2-  -0.0000   0.0133  -0.0109  -0.0000  -0.0012   0.0001   0.0000
  15 C_a :3d1-   0.0094  -0.0000  -0.0000  -0.0109  -0.0000   0.0000   0.0127
  17 C_a :3d1+  -0.0208   0.0000   0.0000   0.0044   0.0000  -0.0000  -0.0025
  18 C_a :3d2+   0.0000   0.0167  -0.0094  -0.0000  -0.0004   0.0001   0.0000
  19 C_a :3d2-  -0.0000  -0.0360  -0.0071  -0.0000   0.0027   0.0015   0.0000
  20 C_a :3d1-  -0.0167  -0.0000   0.0000   0.0002  -0.0000   0.0000   0.0044
  22 C_a :3d1+   0.0341  -0.0000  -0.0000  -0.0061  -0.0000   0.0000   0.0034
  23 C_a :3d2+   0.0000  -0.0544   0.0082   0.0000   0.0014   0.0005   0.0000
  25 C_b :1s     0.0000  -0.0322   0.0617  -0.0000   0.0101  -0.0026  -0.0000
  26 C_b :1s    -0.0000  -0.3667   0.0416   0.0000   0.0193   0.0213  -0.0000
  27 C_b :1s    -0.0000  -0.1066   0.1161  -0.0000  -0.1426  -0.0222  -0.0000
  28 C_b :2px    0.0000  -0.3165   0.2237  -0.0000   0.0135  -0.0015   0.0000
  29 C_b :2py   -0.0000  -0.0252  -0.0769   0.0000  -0.0208   0.0045  -0.0000
  30 C_b :2pz    0.2824   0.0000   0.0000   0.0784   0.0000  -0.0000  -0.1398
  31 C_b :2px   -0.0000  -0.1102  -0.0603  -0.0000   0.0128   0.0130   0.0000
  32 C_b :2py    0.0000   0.0838   0.1482   0.0000   0.0036  -0.0300  -0.0000
  33 C_b :2pz   -0.0157  -0.0000  -0.0000  -0.0106  -0.0000  -0.0000   0.0070
  34 C_b :2px   -0.0000   0.0303   0.0177  -0.0000  -0.0297  -0.0069  -0.0000
  35 C_b :2py   -0.0000   0.0069   0.0134  -0.0000  -0.0935   0.0055  -0.0000
  37 C_b :3d2-   0.0000   0.0107  -0.0076  -0.0000  -0.0009   0.0001   0.0000
  38 C_b :3d1-   0.0136   0.0000   0.0000  -0.0076   0.0000  -0.0000   0.0041
  40 C_b :3d1+   0.0115  -0.0000  -0.0000   0.0049  -0.0000   0.0000  -0.0058
  41 C_b :3d2+  -0.0000   0.0244  -0.0173  -0.0000   0.0005  -0.0003  -0.0000
  42 C_b :3d2-  -0.0000  -0.0234   0.0483   0.0000   0.0043  -0.0094  -0.0000
  43 C_b :3d1-   0.0223  -0.0000  -0.0000  -0.0027  -0.0000   0.0000   0.0038
  44 C_b :3d0    0.0000  -0.0116   0.0016   0.0000   0.0005  -0.0001   0.0000
  45 C_b :3d1+  -0.0103   0.0000   0.0000   0.0018   0.0000  -0.0000  -0.0019
  46 C_b :3d2+  -0.0000  -0.1624   0.0228   0.0000   0.0028   0.0025   0.0000
  48 C_c :1s    -0.0000  -0.0369   0.0609  -0.0000  -0.0116   0.0014   0.0000
  49 C_c :1s     0.0000  -0.5336   0.2012   0.0000   0.0563  -0.0172   0.0000
  50 C_c :1s     0.0000   0.0269  -0.0600   0.0000   0.1092   0.1072   0.0000
  51 C_c :2px   -0.0000   0.3013  -0.3085  -0.0000  -0.0098   0.0006  -0.0000
  52 C_c :2py    0.0000   0.0077  -0.0345  -0.0000   0.0318  -0.0057   0.0000
  53 C_c :2pz    0.1515   0.0000  -0.0000   0.2320  -0.0000   0.0000  -0.2028
  54 C_c :2px    0.0000   0.0424  -0.0546  -0.0000  -0.0233   0.0334   0.0000
  55 C_c :2py    0.0000   0.4520   0.1307   0.0000  -0.0360  -0.0377  -0.0000
  56 C_c :2pz    0.0048  -0.0000   0.0000  -0.0199   0.0000  -0.0000   0.0150
  57 C_c :2px   -0.0000  -0.1179   0.0535  -0.0000  -0.0929  -0.0558  -0.0000
  58 C_c :2py    0.0000   0.0693  -0.0251   0.0000   0.1604   0.0512  -0.0000
  60 C_c :3d2-  -0.0000   0.0091  -0.0245  -0.0000  -0.0027   0.0008   0.0000
  61 C_c :3d1-   0.0043   0.0000   0.0000  -0.0129   0.0000  -0.0000   0.0043
  64 C_c :3d2+  -0.0000   0.0237  -0.0262  -0.0000  -0.0006   0.0002   0.0000
  65 C_c :3d2-  -0.0000  -0.1675   0.0342  -0.0000   0.0245   0.0024  -0.0000
  66 C_c :3d1-  -0.0118  -0.0000  -0.0000   0.0007  -0.0000   0.0000  -0.0002
  67 C_c :3d0   -0.0000  -0.0130   0.0084  -0.0000   0.0001   0.0003  -0.0000
  69 C_c :3d2+  -0.0000  -0.0952   0.0934   0.0000   0.0034  -0.0102   0.0000
  71 C_d :1s     0.0000   0.0115   0.0573   0.0000   0.0169  -0.0064   0.0000
  72 C_d :1s    -0.0000  -0.0990   0.2967  -0.0000   0.0573  -0.0964   0.0000
  73 C_d :1s    -0.0000  -0.0374   0.0640   0.0000   0.1339  -0.1145  -0.0000
  74 C_d :2px    0.0000  -0.0451   0.3958   0.0000   0.0305  -0.0133  -0.0000
  75 C_d :2py   -0.0000  -0.1259   0.0073   0.0000  -0.0451   0.0136   0.0000
  76 C_d :2pz    0.0962  -0.0000  -0.0000   0.3208  -0.0000   0.0000  -0.1737
  77 C_d :2px   -0.0000  -0.2137   0.0266  -0.0000   0.0382  -0.0471  -0.0000
  78 C_d :2py    0.0000   0.6987   0.0177   0.0000  -0.0735  -0.0080  -0.0000
  79 C_d :2pz   -0.0275   0.0000   0.0000  -0.0164   0.0000  -0.0000  -0.0040
  80 C_d :2px    0.0000   0.0416  -0.0527   0.0000   0.0908  -0.0119  -0.0000
  81 C_d :2py   -0.0000  -0.0554   0.0325  -0.0000  -0.2300  -0.1280  -0.0000
  83 C_d :3d2-  -0.0000   0.0116  -0.0246  -0.0000  -0.0028   0.0010  -0.0000
  86 C_d :3d1+   0.0036  -0.0000   0.0000   0.0134   0.0000   0.0000  -0.0037
  87 C_d :3d2+  -0.0000   0.0022  -0.0295   0.0000   0.0014   0.0010  -0.0000
  88 C_d :3d2-  -0.0000   0.1021   0.0760   0.0000   0.0019  -0.0104  -0.0000
  92 C_d :3d2+  -0.0000  -0.1248   0.1178  -0.0000   0.0188  -0.0223  -0.0000
  94 C_e :1s     0.0000   0.0108   0.0892   0.0000  -0.0249  -0.0042   0.0000
  95 C_e :1s    -0.0000   0.2344   0.2623  -0.0000   0.0465  -0.1533  -0.0000
  96 C_e :1s    -0.0000  -0.0099   0.0839  -0.0000  -0.3669  -0.1191  -0.0000
  97 C_e :2px    0.0000  -0.1607  -0.3641   0.0000  -0.0159   0.0235   0.0000
  98 C_e :2py    0.0000  -0.1480   0.0285   0.0000   0.0800   0.0021  -0.0000
  99 C_e :2pz    0.0510  -0.0000   0.0000   0.3806  -0.0000   0.0000  -0.0150
 100 C_e :2px    0.0000  -0.2652  -0.0028  -0.0000   0.0090   0.0264   0.0000
 101 C_e :2py    0.0000   0.6357  -0.1260   0.0000  -0.1361   0.1132  -0.0000
 102 C_e :2pz   -0.0023   0.0000   0.0000  -0.0313   0.0000  -0.0000   0.0048
 103 C_e :2px    0.0000   0.0530   0.0191   0.0000   0.0665  -0.0556   0.0000
 104 C_e :2py    0.0000   0.0866  -0.0041   0.0000   0.1725   0.2218  -0.0000
 105 C_e :2pz    0.0003  -0.0000   0.0000   0.0129  -0.0000   0.0000   0.0032
 106 C_e :3d2-   0.0000  -0.0176  -0.0218   0.0000  -0.0052   0.0031  -0.0000
 109 C_e :3d1+  -0.0027   0.0000   0.0000  -0.0123   0.0000  -0.0000   0.0036
 110 C_e :3d2+   0.0000  -0.0114  -0.0280  -0.0000   0.0001   0.0026  -0.0000
 111 C_e :3d2-  -0.0000  -0.0600   0.0882  -0.0000   0.0456  -0.0458   0.0000
 115 C_e :3d2+  -0.0000   0.1733   0.0832  -0.0000  -0.0229  -0.0157  -0.0000
 117 C_f :1s    -0.0000   0.0245   0.0258  -0.0000   0.0352  -0.0070   0.0000
 118 C_f :1s    -0.0000   0.5768   0.0759  -0.0000  -0.1120  -0.0795  -0.0000
 119 C_f :1s     0.0000   0.0874  -0.0272   0.0000   0.2151   0.2734   0.0000
 120 C_f :2px    0.0000   0.3536   0.2241   0.0000   0.0433  -0.0613   0.0000
 121 C_f :2py   -0.0000   0.0749   0.0481  -0.0000  -0.1011   0.0107   0.0000
 122 C_f :2pz    0.0335  -0.0000   0.0000   0.3897   0.0000  -0.0000   0.0954
 123 C_f :2px   -0.0000   0.0733   0.0512  -0.0000  -0.0201  -0.0832   0.0000
 124 C_f :2py    0.0000   0.3512  -0.1711   0.0000  -0.1082   0.2047  -0.0000
 125 C_f :2pz   -0.0007   0.0000  -0.0000  -0.0189  -0.0000   0.0000   0.0074
 126 C_f :2px    0.0000  -0.0666  -0.0237   0.0000   0.0532   0.1112   0.0000
 127 C_f :2py   -0.0000   0.0041  -0.0096  -0.0000   0.0253  -0.1111   0.0000
 129 C_f :3d2-   0.0000  -0.0173  -0.0226   0.0000  -0.0051   0.0030  -0.0000
 132 C_f :3d1+   0.0010  -0.0000  -0.0000   0.0135  -0.0000  -0.0000   0.0052
 133 C_f :3d2+   0.0000  -0.0258  -0.0172   0.0000   0.0043   0.0024  -0.0000
 134 C_f :3d2-   0.0000   0.1824   0.0159   0.0000  -0.0110   0.0273  -0.0000
 136 C_f :3d0   -0.0000   0.0142   0.0040  -0.0000  -0.0030  -0.0022  -0.0000
 138 C_f :3d2+  -0.0000   0.1276   0.0768  -0.0000  -0.0037  -0.0389   0.0000
 140 C_g :1s     0.0000   0.0547   0.0674   0.0000  -0.0184   0.0539  -0.0000
 141 C_g :1s    -0.0000   0.3477  -0.0076   0.0000  -0.1763   0.0887  -0.0000
 142 C_g :1s     0.0000   0.0360   0.0107   0.0000   0.1589  -0.3617   0.0000
 143 C_g :2px   -0.0000  -0.3201  -0.1574  -0.0000  -0.0165   0.0733  -0.0000
 144 C_g :2py   -0.0000  -0.0308   0.0512  -0.0000   0.1473  -0.0540  -0.0000
 145 C_g :2pz    0.0168   0.0000   0.0000   0.3022   0.0000  -0.0000   0.1879
 146 C_g :2px   -0.0000  -0.1129   0.0641  -0.0000   0.0454  -0.1590   0.0000
 147 C_g :2py    0.0000  -0.0482  -0.1240   0.0000   0.0509   0.1404  -0.0000
 148 C_g :2pz   -0.0065  -0.0000  -0.0000  -0.0294  -0.0000   0.0000  -0.0385
 149 C_g :2px    0.0000   0.0126  -0.0184  -0.0000  -0.0251   0.0277   0.0000
 150 C_g :2py   -0.0000   0.0530   0.0320  -0.0000  -0.0476   0.1537  -0.0000
 152 C_g :3d2-   0.0000  -0.0147  -0.0068  -0.0000  -0.0119   0.0030   0.0000
 155 C_g :3d1+  -0.0010  -0.0000  -0.0000  -0.0131  -0.0000   0.0000  -0.0046
 156 C_g :3d2+  -0.0000  -0.0241  -0.0109  -0.0000  -0.0000  -0.0029  -0.0000
 157 C_g :3d2-  -0.0000   0.0677   0.0356  -0.0000  -0.0072  -0.0400   0.0000
 159 C_g :3d0   -0.0000   0.0101   0.0006  -0.0000  -0.0043   0.0012   0.0000
 160 C_g :3d1+   0.0024   0.0000  -0.0000   0.0024  -0.0000   0.0000   0.0121
 161 C_g :3d2+   0.0000   0.1464  -0.0012   0.0000  -0.0229   0.0291   0.0000
 163 C_h :1s     0.0000   0.0120  -0.0139   0.0000   0.0991   0.0026   0.0000
 164 C_h :1s     0.0000   0.0422  -0.0710   0.0000   0.0307   0.1272  -0.0000
 165 C_h :1s    -0.0000   0.1113   0.0393  -0.0000  -0.2351   0.2759  -0.0000
 166 C_h :2px   -0.0000   0.1015   0.0136  -0.0000   0.2255   0.1300   0.0000
 167 C_h :2py   -0.0000   0.1190   0.0247   0.0000  -0.2342   0.0252  -0.0000
 168 C_h :2pz    0.0093   0.0000  -0.0000   0.2227  -0.0000   0.0000   0.1752
 169 C_h :2px    0.0000   0.0502  -0.0122   0.0000  -0.0599  -0.0481   0.0000
 170 C_h :2py    0.0000  -0.1158  -0.0610   0.0000   0.1610  -0.0055   0.0000
 172 C_h :2px   -0.0000   0.0178   0.0164  -0.0000  -0.0436   0.0384  -0.0000
 173 C_h :2py   -0.0000   0.0051  -0.0155  -0.0000  -0.0220   0.0261  -0.0000
 174 C_h :2pz    0.0017   0.0000  -0.0000   0.0157  -0.0000   0.0000   0.0151
 175 C_h :3d2-   0.0000  -0.0172  -0.0082  -0.0000  -0.0225  -0.0017  -0.0000
 176 C_h :3d1-   0.0008   0.0000   0.0000   0.0144   0.0000  -0.0000   0.0110
 179 C_h :3d2+  -0.0000  -0.0102  -0.0041   0.0000   0.0040  -0.0035   0.0000
 180 C_h :3d2-   0.0000   0.0325  -0.0084   0.0000   0.0377   0.0316   0.0000
 181 C_h :3d1-   0.0010   0.0000  -0.0000   0.0087  -0.0000   0.0000   0.0308
 184 C_h :3d2+  -0.0000   0.0395   0.0064  -0.0000  -0.0438   0.0110   0.0000
 186 N_a :1s    -0.0000  -0.0296   0.0213   0.0000   0.0034  -0.0006   0.0000
 188 N_a :1s    -0.0000   0.0311  -0.0086  -0.0000   0.0001   0.0125  -0.0000
 189 N_a :2px   -0.0000  -0.0581   0.0198   0.0000   0.0018  -0.0002  -0.0000
 190 N_a :2py   -0.0000   0.0214  -0.0326  -0.0000  -0.0069   0.0014  -0.0000
 191 N_a :2pz    0.6300  -0.0000  -0.0000  -0.2011  -0.0000  -0.0000   0.1605
 194 N_a :2pz    0.0432   0.0000   0.0000  -0.0156   0.0000   0.0000   0.0143
 196 N_a :2py   -0.0000  -0.0146   0.0025  -0.0000  -0.0094  -0.0043  -0.0000
 197 N_a :2pz    0.0423  -0.0000  -0.0000  -0.0213  -0.0000  -0.0000   0.0202
 204 N_a :3d1-  -0.0174   0.0000   0.0000   0.0035   0.0000   0.0000  -0.0014
 206 N_a :3d1+   0.0132   0.0000   0.0000  -0.0019   0.0000  -0.0000   0.0001
 209 N_b :1s    -0.0000   0.0231   0.0134  -0.0000   0.0213   0.0014  -0.0000
 210 N_b :1s     0.0000  -0.0159  -0.0104   0.0000   0.0633   0.0202   0.0000
 211 N_b :1s     0.0000  -0.0889  -0.0451   0.0000   0.0947  -0.0263   0.0000
 212 N_b :2px    0.0000  -0.0530  -0.0096   0.0000  -0.2195   0.0228  -0.0000
 213 N_b :2py   -0.0000   0.0310   0.0191  -0.0000   0.1831   0.1053  -0.0000
 214 N_b :2pz   -0.0029  -0.0000  -0.0000  -0.0402  -0.0000   0.0000  -0.0247
 215 N_b :2px   -0.0000   0.0075   0.0061  -0.0000  -0.0210  -0.0404  -0.0000
 216 N_b :2py    0.0000  -0.0086   0.0020   0.0000   0.0368  -0.0312   0.0000
 218 N_b :2px   -0.0000   0.0051   0.0079  -0.0000  -0.0369  -0.0051  -0.0000
 219 N_b :2py    0.0000  -0.0072   0.0110  -0.0000   0.0285  -0.0011  -0.0000
 220 N_b :2pz   -0.0031   0.0000  -0.0000  -0.0185  -0.0000   0.0000  -0.0108
 221 N_b :3d2-  -0.0000   0.0014   0.0035  -0.0000  -0.0616  -0.0103   0.0000
 222 N_b :3d1-   0.0003   0.0000  -0.0000   0.0069  -0.0000   0.0000   0.0395
 224 N_b :3d1+  -0.0003  -0.0000   0.0000  -0.0056   0.0000   0.0000   0.0280
 225 N_b :3d2+  -0.0000  -0.0021   0.0024  -0.0000  -0.0045   0.0439  -0.0000
 226 N_b :3d2-   0.0000  -0.0006  -0.0007   0.0000  -0.0236  -0.0038  -0.0000
 228 N_b :3d0    0.0000  -0.0001   0.0000   0.0000   0.0109   0.0018  -0.0000
 230 N_b :3d2+   0.0000  -0.0181  -0.0051  -0.0000   0.0047  -0.0242   0.0000
 232 O_a :1s    -0.0000   0.0222   0.0075  -0.0000   0.0079   0.0020  -0.0000
 233 O_a :1s     0.0000   0.0164   0.0015   0.0000   0.0389   0.0240   0.0000
 234 O_a :1s     0.0000   0.0329   0.0089   0.0000   0.0362   0.0145  -0.0000
 235 O_a :2px    0.0000   0.0341  -0.0058   0.0000   0.3603   0.1490   0.0000
 236 O_a :2py   -0.0000   0.0061  -0.0094  -0.0000  -0.3243  -0.7514   0.0000
 237 O_a :2pz   -0.0035  -0.0000   0.0000  -0.0675   0.0000   0.0000   0.4845
 239 O_a :2py    0.0000  -0.0088  -0.0020   0.0000  -0.0279  -0.0514  -0.0000
 240 O_a :2pz    0.0001   0.0000  -0.0000  -0.0021  -0.0000  -0.0000   0.0398
 241 O_a :2px   -0.0000  -0.0071  -0.0041  -0.0000   0.0135   0.0122   0.0000
 242 O_a :2py   -0.0000  -0.0009  -0.0017  -0.0000  -0.0373  -0.0634   0.0000
 243 O_a :2pz    0.0004  -0.0000   0.0000   0.0019   0.0000   0.0000   0.0546
 244 O_a :3d2-  -0.0000  -0.0010   0.0001  -0.0000  -0.0002   0.0109   0.0000
 249 O_a :3d2-   0.0000   0.0035   0.0015   0.0000   0.0060   0.0289   0.0000
 252 O_a :3d1+   0.0001  -0.0000  -0.0000   0.0024  -0.0000  -0.0000  -0.0218
 256 O_b :1s     0.0000  -0.0052   0.0027  -0.0000   0.0440  -0.0102  -0.0000
 257 O_b :1s     0.0000   0.0272   0.0210  -0.0000   0.0143   0.0066  -0.0000
 258 O_b :2px    0.0000  -0.0573  -0.0777   0.0000   0.6034  -0.5749   0.0000
 259 O_b :2py   -0.0000   0.0126   0.0125   0.0000  -0.3672  -0.0304  -0.0000
 260 O_b :2pz   -0.0040  -0.0000   0.0000  -0.0866   0.0000  -0.0000  -0.5989
 261 O_b :2px   -0.0000  -0.0084  -0.0035  -0.0000   0.0423  -0.0335  -0.0000
 263 O_b :2pz   -0.0004   0.0000  -0.0000  -0.0050  -0.0000   0.0000  -0.0458
 264 O_b :2px    0.0000  -0.0047  -0.0043   0.0000   0.0538  -0.0473   0.0000
 265 O_b :2py   -0.0000   0.0093   0.0041   0.0000  -0.0222   0.0058  -0.0000
 266 O_b :2pz    0.0007  -0.0000   0.0000  -0.0013   0.0000  -0.0000  -0.0573
 267 O_b :3d2-  -0.0000  -0.0015  -0.0015  -0.0000   0.0045  -0.0104   0.0000
 268 O_b :3d1-  -0.0001   0.0000  -0.0000  -0.0025  -0.0000   0.0000  -0.0129
 272 O_b :3d2-   0.0000  -0.0042  -0.0028   0.0000   0.0170  -0.0240   0.0000
 273 O_b :3d1-  -0.0003  -0.0000   0.0000  -0.0045   0.0000  -0.0000  -0.0273
 276 O_b :3d2+   0.0000  -0.0014  -0.0013   0.0000   0.0106  -0.0015   0.0000
 277 H_a :1s    -0.0000   0.1827  -0.0713   0.0000  -0.0015  -0.0003  -0.0000
 278 H_a :1s    -0.0000   0.0337  -0.0102  -0.0000  -0.0039   0.0025  -0.0000
 279 H_a :1s    -0.0000  -0.0227   0.0005   0.0000  -0.0047  -0.0138  -0.0000
 283 H_a :2px    0.0000  -0.0209   0.0098   0.0000   0.0017  -0.0007   0.0000
 285 H_a :2pz   -0.0108   0.0000   0.0000   0.0020   0.0000  -0.0000  -0.0021
 286 H_b :1s     0.0000   0.3429  -0.2096   0.0000  -0.0040  -0.0006   0.0000
 287 H_b :1s     0.0000   0.1112  -0.0318  -0.0000   0.0076   0.0062   0.0000
 288 H_b :1s    -0.0000   0.0292   0.0097  -0.0000  -0.0191   0.0030   0.0000
 292 H_b :2px    0.0000   0.0463  -0.0226  -0.0000   0.0025   0.0018   0.0000
 293 H_b :2py   -0.0000   0.0190  -0.0017   0.0000   0.0025  -0.0023  -0.0000
 295 H_c :1s    -0.0000   0.0620  -0.0143   0.0000   0.0007  -0.0004  -0.0000
 296 H_c :1s     0.0000  -0.0012   0.0118   0.0000   0.0007  -0.0022  -0.0000
 300 H_c :2pz    0.0180  -0.0000  -0.0000  -0.0058  -0.0000   0.0000   0.0047
 304 H_d :1s     0.0000  -0.0225  -0.0144  -0.0000  -0.0055   0.0011   0.0000
 305 H_d :1s     0.0000  -0.0296   0.0055   0.0000  -0.0010   0.0004   0.0000
 309 H_d :2pz    0.0180  -0.0000  -0.0000  -0.0061  -0.0000   0.0000   0.0050
 311 H_d :2py   -0.0000   0.0163  -0.0012   0.0000   0.0016  -0.0005  -0.0000
 312 H_d :2pz    0.0101  -0.0000   0.0000  -0.0037   0.0000  -0.0000   0.0037
 313 H_e :1s    -0.0000   0.3093  -0.3420   0.0000  -0.0111   0.0016  -0.0000
 314 H_e :1s     0.0000   0.1096  -0.0744   0.0000  -0.0055  -0.0075   0.0000
 315 H_e :1s     0.0000   0.0818  -0.0270   0.0000   0.0400   0.0310   0.0000
 319 H_e :2px   -0.0000  -0.0460   0.0448  -0.0000   0.0044   0.0024  -0.0000
 322 H_f :1s     0.0000   0.0939  -0.4217   0.0000  -0.0096   0.0085   0.0000
 323 H_f :1s     0.0000   0.0571  -0.1120   0.0000  -0.0179   0.0106  -0.0000
 324 H_f :1s     0.0000   0.0115  -0.0367   0.0000   0.0202  -0.0247  -0.0000
 328 H_f :2px    0.0000   0.0181  -0.0565   0.0000  -0.0056   0.0026  -0.0000
 329 H_f :2py    0.0000   0.0108  -0.0105   0.0000   0.0062  -0.0020  -0.0000
 331 H_g :1s     0.0000  -0.2170  -0.3598   0.0000  -0.0099   0.0291   0.0000
 332 H_g :1s    -0.0000  -0.0827  -0.0930  -0.0000   0.0180   0.0272  -0.0000
 333 H_g :1s    -0.0000  -0.0675  -0.0247  -0.0000  -0.0803  -0.0362   0.0000
 337 H_g :2px   -0.0000   0.0309   0.0497  -0.0000   0.0005  -0.0099   0.0000
 338 H_g :2py    0.0000   0.0139   0.0044   0.0000  -0.0175   0.0039  -0.0000
 340 H_h :1s    -0.0000  -0.3901  -0.2654  -0.0000   0.0074   0.0578  -0.0000
 341 H_h :1s    -0.0000  -0.1270  -0.0488  -0.0000  -0.0226   0.0051   0.0000
 342 H_h :1s     0.0000  -0.0422  -0.0071  -0.0000   0.0036   0.0412   0.0000
 346 H_h :2px   -0.0000  -0.0523  -0.0315  -0.0000  -0.0082   0.0065   0.0000
 347 H_h :2py   -0.0000  -0.0138  -0.0045  -0.0000   0.0104  -0.0014   0.0000
 349 H_i :1s    -0.0000  -0.3172  -0.1216  -0.0000  -0.0109   0.0504  -0.0000
 350 H_i :1s    -0.0000  -0.0772  -0.0059  -0.0000  -0.0177   0.0767  -0.0000
 351 H_i :1s     0.0000  -0.0003   0.0102   0.0000   0.0564   0.0028  -0.0000
 355 H_i :2px    0.0000   0.0391   0.0127   0.0000   0.0072  -0.0354   0.0000
 356 H_i :2py    0.0000   0.0133  -0.0027   0.0000  -0.0068   0.0052   0.0000
 358 H_j :1s     0.0000  -0.1609  -0.0429   0.0000  -0.0842  -0.1336  -0.0000
 359 H_j :1s     0.0000  -0.0332  -0.0071   0.0000   0.0396  -0.0608   0.0000
 360 H_j :1s    -0.0000   0.0103  -0.0015  -0.0000  -0.0097   0.0022  -0.0000
 364 H_j :2px    0.0000  -0.0190  -0.0059   0.0000  -0.0024  -0.0216   0.0000
 365 H_j :2py    0.0000  -0.0070  -0.0014   0.0000   0.0288  -0.0155   0.0000

    Orbital        42       43       44       45       46       47       48
   2 C_a :1s     0.0000  -0.0000   0.0000   0.0390  -0.0486  -0.0000   0.0020
   3 C_a :1s     0.0000   0.0000  -0.0000  -0.7003   0.0739   0.0000   0.3545
   4 C_a :1s     0.0000  -0.0000  -0.0000   1.0178  13.2986   0.0000   5.3319
   5 C_a :2px    0.0000   0.0000  -0.0000   0.0668  -0.0461   0.0000   0.0139
   6 C_a :2py    0.0000   0.0000  -0.0000  -0.0120  -0.0198   0.0000   0.0230
   7 C_a :2pz    0.0287  -0.1804   0.2823  -0.0000  -0.0000   0.2519   0.0000
   8 C_a :2px   -0.0000   0.0000   0.0000   0.0577  -0.1827  -0.0000   0.0095
   9 C_a :2py   -0.0000  -0.0000   0.0000   0.9660   0.1221  -0.0000  -0.0766
  10 C_a :2pz    0.0104  -0.0125   0.0174   0.0000  -0.0000   0.0485  -0.0000
  11 C_a :2px    0.0000   0.0000  -0.0000  -0.0593  -2.9833   0.0000   0.8115
  12 C_a :2py   -0.0000   0.0000  -0.0000   3.0722  -2.0972  -0.0000  -2.1513
  13 C_a :2pz    0.0079  -0.0253   0.0494  -0.0000  -0.0000   0.2660   0.0000
  15 C_a :3d1-  -0.0196   0.0313  -0.0289  -0.0000  -0.0000  -0.0047   0.0000
  19 C_a :3d2-   0.0000  -0.0000  -0.0000  -0.1448  -0.0453   0.0000   0.1507
  20 C_a :3d1-  -0.0075   0.0188  -0.0202   0.0000   0.0000   0.0113  -0.0000
  21 C_a :3d0   -0.0000   0.0000  -0.0000   0.0303   0.0016   0.0000  -0.0713
  23 C_a :3d2+  -0.0000  -0.0000  -0.0000   0.2155   0.0795   0.0000   0.1013
  25 C_b :1s    -0.0000   0.0000  -0.0000   0.0166   0.0609   0.0000   0.0181
  26 C_b :1s     0.0000  -0.0000   0.0000   0.3617  -0.1119   0.0000   0.0746
  27 C_b :1s    -0.0000   0.0000   0.0000   1.3724 -18.6496  -0.0000  -2.4573
  28 C_b :2px    0.0000  -0.0000  -0.0000  -0.0264  -0.0460   0.0000  -0.0355
  30 C_b :2pz    0.2175  -0.3816   0.3423   0.0000   0.0000  -0.0077  -0.0000
  31 C_b :2px    0.0000  -0.0000  -0.0000  -0.0904   0.1942   0.0000   0.0961
  32 C_b :2py   -0.0000  -0.0000   0.0000   1.3812   0.1537  -0.0000  -0.0651
  33 C_b :2pz   -0.0121  -0.0014   0.0232   0.0000   0.0000   0.0128  -0.0000
  34 C_b :2px   -0.0000  -0.0000  -0.0000  -0.7755  -3.7447  -0.0000  -1.5783
  35 C_b :2py   -0.0000   0.0000  -0.0000   1.8142  -4.1632   0.0000  -0.5682
  36 C_b :2pz    0.0086  -0.0315   0.0692   0.0000   0.0000  -0.0279  -0.0000
  38 C_b :3d1-  -0.0060  -0.0062   0.0222  -0.0000  -0.0000   0.0228   0.0000
  42 C_b :3d2-  -0.0000  -0.0000   0.0000   0.3998   0.0421  -0.0000   0.0965
  43 C_b :3d1-  -0.0046   0.0016   0.0122   0.0000  -0.0000   0.0263  -0.0000
  44 C_b :3d0    0.0000  -0.0000   0.0000  -0.0061   0.0577   0.0000  -0.0049
  46 C_b :3d2+   0.0000  -0.0000  -0.0000   0.0772   0.0897   0.0000   0.2526
  48 C_c :1s    -0.0000  -0.0000   0.0000  -0.0092  -0.0576  -0.0000   0.0230
  49 C_c :1s    -0.0000   0.0000  -0.0000   0.4429   0.4271   0.0000   0.5137
  50 C_c :1s     0.0000  -0.0000   0.0000  -1.5072  19.8638   0.0000   1.8611
  51 C_c :2px   -0.0000   0.0000   0.0000   0.0300  -0.0430  -0.0000   0.0428
  52 C_c :2py   -0.0000   0.0000  -0.0000  -0.0096  -0.0132   0.0000   0.0179
  53 C_c :2pz    0.3075  -0.1250  -0.2627  -0.0000  -0.0000  -0.3211   0.0000
  54 C_c :2px    0.0000   0.0000  -0.0000  -0.6206   0.0785  -0.0000  -0.2301
  55 C_c :2py   -0.0000  -0.0000   0.0000   0.9697   0.0595  -0.0000  -0.0610
  56 C_c :2pz   -0.0155   0.0141  -0.0164  -0.0000  -0.0000  -0.0515   0.0000
  57 C_c :2px   -0.0000   0.0000  -0.0000   0.2804  -4.0710   0.0000   1.7938
  58 C_c :2py    0.0000  -0.0000   0.0000   2.3481   1.4249  -0.0000  -2.7022
  59 C_c :2pz    0.0074   0.0028  -0.0498  -0.0000  -0.0000  -0.2671   0.0000
  61 C_c :3d1-  -0.0061  -0.0187   0.0319   0.0000   0.0000  -0.0055  -0.0000
  65 C_c :3d2-   0.0000  -0.0000  -0.0000  -0.1639   0.0121   0.0000   0.1691
  66 C_c :3d1-  -0.0020  -0.0154   0.0238  -0.0000  -0.0000  -0.0097   0.0000
  67 C_c :3d0   -0.0000  -0.0000  -0.0000  -0.0004  -0.0567   0.0000  -0.0297
  69 C_c :3d2+   0.0000  -0.0000   0.0000   0.3688   0.1612   0.0000   0.2728
  71 C_d :1s     0.0000  -0.0000  -0.0000  -0.0068   0.0405   0.0000   0.0203
  72 C_d :1s    -0.0000   0.0000  -0.0000   0.7559  -0.0289   0.0000   0.5808
  73 C_d :1s    -0.0000  -0.0000  -0.0000   2.0740 -15.6529   0.0000  -2.8571
  74 C_d :2px   -0.0000  -0.0000  -0.0000  -0.0055  -0.0322   0.0000  -0.0464
  75 C_d :2py    0.0000  -0.0000   0.0000  -0.0007  -0.0071  -0.0000  -0.0147
  76 C_d :2pz    0.2579   0.1394  -0.3916   0.0000  -0.0000   0.1038   0.0000
  77 C_d :2px   -0.0000  -0.0000  -0.0000   0.2017   0.2697   0.0000   0.4682
  78 C_d :2py   -0.0000  -0.0000   0.0000   0.6248  -0.0305  -0.0000  -0.1567
  79 C_d :2pz   -0.0014  -0.0135  -0.0198   0.0000   0.0000   0.0104  -0.0000
  80 C_d :2px    0.0000  -0.0000   0.0000  -0.5541  -1.0738   0.0000  -2.0077
  81 C_d :2py   -0.0000   0.0000  -0.0000   2.7292  -6.8368   0.0000   2.6991
  82 C_d :2pz    0.0064   0.0092  -0.0756   0.0000  -0.0000   0.0839   0.0000
  84 C_d :3d1-   0.0142  -0.0146  -0.0184  -0.0000  -0.0000  -0.0277   0.0000
  88 C_d :3d2-  -0.0000  -0.0000   0.0000   0.2632  -0.0148  -0.0000   0.0895
  89 C_d :3d1-   0.0022  -0.0074  -0.0113   0.0000   0.0000  -0.0281  -0.0000
  90 C_d :3d0   -0.0000  -0.0000  -0.0000  -0.0086   0.0485  -0.0000  -0.0032
  92 C_d :3d2+  -0.0000  -0.0000  -0.0000   0.0998  -0.0274   0.0000   0.3587
  94 C_e :1s    -0.0000  -0.0000  -0.0000  -0.0034  -0.0323   0.0000   0.0182
  95 C_e :1s     0.0000   0.0000  -0.0000   0.3962   0.2030   0.0000   0.6046
  96 C_e :1s    -0.0000   0.0000  -0.0000   0.7531   8.7349  -0.0000   2.1686
  97 C_e :2px    0.0000  -0.0000   0.0000   0.0099  -0.0276  -0.0000   0.0416
  98 C_e :2py   -0.0000   0.0000  -0.0000  -0.0008  -0.0069   0.0000   0.0107
  99 C_e :2pz    0.0094   0.3402   0.1661  -0.0000  -0.0000   0.3559   0.0000
 100 C_e :2px    0.0000   0.0000  -0.0000  -0.2035   0.0849   0.0000  -0.1496
 101 C_e :2py    0.0000  -0.0000   0.0000   0.0744  -0.2189  -0.0000  -0.5336
 102 C_e :2pz   -0.0075   0.0035   0.0141  -0.0000  -0.0000   0.0511  -0.0000
 103 C_e :2px    0.0000   0.0000  -0.0000  -0.5339  -2.3315   0.0000   0.7915
 104 C_e :2py    0.0000  -0.0000   0.0000   1.3157   2.6383  -0.0000  -1.3700
 105 C_e :2pz   -0.0007   0.0132   0.0386  -0.0000  -0.0000   0.2691   0.0000
 107 C_e :3d1-   0.0152  -0.0081  -0.0317  -0.0000  -0.0000   0.0128   0.0000
 111 C_e :3d2-  -0.0000   0.0000  -0.0000  -0.0249   0.0601   0.0000   0.3282
 112 C_e :3d1-   0.0049  -0.0035  -0.0258  -0.0000  -0.0000   0.0207   0.0000
 113 C_e :3d0    0.0000   0.0000   0.0000  -0.0046  -0.0274   0.0000  -0.0041
 115 C_e :3d2+  -0.0000  -0.0000   0.0000   0.1551  -0.0375  -0.0000   0.2833
 117 C_f :1s     0.0000  -0.0000   0.0000  -0.0023   0.0277  -0.0000   0.0177
 118 C_f :1s     0.0000  -0.0000   0.0000   0.2158  -0.3109  -0.0000   0.3451
 119 C_f :1s     0.0000  -0.0000   0.0000  -0.8832  -5.0919   0.0000  -1.9730
 120 C_f :2px    0.0000   0.0000  -0.0000  -0.0015  -0.0200   0.0000  -0.0361
 121 C_f :2py   -0.0000  -0.0000   0.0000  -0.0001  -0.0053  -0.0000  -0.0161
 122 C_f :2pz   -0.1636   0.2368   0.3685   0.0000   0.0000  -0.1821  -0.0000
 123 C_f :2px    0.0000   0.0000   0.0000   0.1344  -0.0409  -0.0000   0.4591
 124 C_f :2py    0.0000  -0.0000   0.0000  -0.0513  -0.1456  -0.0000  -0.5401
 125 C_f :2pz    0.0183   0.0097   0.0169  -0.0000  -0.0000  -0.0195   0.0000
 126 C_f :2px    0.0000  -0.0000   0.0000  -0.9607   0.8676  -0.0000  -2.9467
 127 C_f :2py   -0.0000   0.0000  -0.0000   1.4611  -3.8681   0.0000   2.9537
 128 C_f :2pz    0.0005   0.0220   0.0635   0.0000   0.0000  -0.1082  -0.0000
 130 C_f :3d1-   0.0075   0.0228   0.0105  -0.0000  -0.0000   0.0287   0.0000
 134 C_f :3d2-  -0.0000  -0.0000   0.0000  -0.0000  -0.0354  -0.0000   0.0440
 135 C_f :3d1-  -0.0051   0.0042   0.0032   0.0000   0.0000   0.0319  -0.0000
 136 C_f :3d0   -0.0000  -0.0000   0.0000  -0.0044   0.0290  -0.0000  -0.0218
 138 C_f :3d2+   0.0000   0.0000  -0.0000   0.0206   0.0184   0.0000   0.3596
 140 C_g :1s     0.0000   0.0000  -0.0000  -0.0000  -0.0147   0.0000   0.0082
 141 C_g :1s    -0.0000  -0.0000   0.0000  -0.0388  -0.0268  -0.0000   0.0355
 142 C_g :1s     0.0000  -0.0000  -0.0000  -1.3734   3.1562   0.0000   0.1578
 143 C_g :2px   -0.0000  -0.0000   0.0000   0.0032  -0.0110  -0.0000   0.0236
 145 C_g :2pz   -0.2968  -0.2338  -0.0471  -0.0000  -0.0000  -0.3434  -0.0000
 146 C_g :2px   -0.0000   0.0000  -0.0000   0.0535   0.0391   0.0000   0.0836
 147 C_g :2py   -0.0000  -0.0000   0.0000  -0.1683   0.0211  -0.0000  -0.6451
 148 C_g :2pz   -0.0026  -0.0033  -0.0032   0.0000  -0.0000  -0.0624   0.0000
 149 C_g :2px   -0.0000  -0.0000   0.0000  -0.8318  -0.2666  -0.0000  -0.0433
 150 C_g :2py    0.0000   0.0000   0.0000   3.2592   0.0383  -0.0000   2.1192
 151 C_g :2pz   -0.0100  -0.0090  -0.0178  -0.0000  -0.0000  -0.3081   0.0000
 153 C_g :3d1-   0.0107   0.0275   0.0264  -0.0000   0.0000  -0.0188  -0.0000
 157 C_g :3d2-   0.0000   0.0000   0.0000   0.0230  -0.0354  -0.0000   0.2322
 158 C_g :3d1-  -0.0012   0.0101   0.0159   0.0000  -0.0000  -0.0211   0.0000
 159 C_g :3d0   -0.0000  -0.0000   0.0000  -0.0089  -0.0204  -0.0000  -0.0269
 161 C_g :3d2+   0.0000   0.0000   0.0000  -0.0329  -0.0143  -0.0000   0.0890
 163 C_h :1s    -0.0000  -0.0000   0.0000  -0.0123   0.0123  -0.0000   0.0021
 164 C_h :1s    -0.0000   0.0000  -0.0000   0.0121  -0.0776   0.0000  -0.1166
 165 C_h :1s    -0.0000   0.0000  -0.0000   6.1976  -3.7151  -0.0000   7.2521
 166 C_h :2px   -0.0000   0.0000  -0.0000   0.0012  -0.0094  -0.0000  -0.0142
 167 C_h :2py    0.0000  -0.0000   0.0000   0.0008  -0.0039  -0.0000  -0.0132
 168 C_h :2pz   -0.2984  -0.3994  -0.2887   0.0000   0.0000   0.2690   0.0000
 169 C_h :2px    0.0000  -0.0000   0.0000  -0.1407  -0.0306  -0.0000  -0.0948
 170 C_h :2py   -0.0000   0.0000  -0.0000  -0.1433   0.0619   0.0000  -0.4322
 171 C_h :2pz    0.0088  -0.0044  -0.0155   0.0000   0.0000   0.0555  -0.0000
 172 C_h :2px   -0.0000   0.0000   0.0000   0.8929  -0.2168  -0.0000   0.1984
 173 C_h :2py   -0.0000   0.0000   0.0000   0.9270  -1.4037  -0.0000   1.4326
 174 C_h :2pz   -0.0166  -0.0366  -0.0421   0.0000   0.0000   0.1878   0.0000
 176 C_h :3d1-  -0.0131  -0.0111  -0.0015  -0.0000  -0.0000  -0.0285   0.0000
 180 C_h :3d2-   0.0000   0.0000   0.0000   0.0069  -0.0183  -0.0000   0.0628
 181 C_h :3d1-   0.0029  -0.0132  -0.0077   0.0000   0.0000  -0.0176  -0.0000
 182 C_h :3d0    0.0000   0.0000  -0.0000  -0.0272   0.0109   0.0000  -0.0519
 184 C_h :3d2+   0.0000   0.0000   0.0000   0.0007  -0.0299  -0.0000   0.0878
 186 N_a :1s    -0.0000  -0.0000  -0.0000   0.1220   0.0405   0.0000  -0.0344
 187 N_a :1s    -0.0000   0.0000  -0.0000  -0.1772  -0.0920  -0.0000   0.0092
 188 N_a :1s    -0.0000  -0.0000   0.0000  -2.5869  -2.4550  -0.0000  -0.2741
 189 N_a :2px   -0.0000  -0.0000   0.0000  -0.0246  -0.0520   0.0000  -0.0071
 190 N_a :2py    0.0000  -0.0000   0.0000   0.0630  -0.0175  -0.0000  -0.0243
 191 N_a :2pz   -0.2460   0.3148  -0.2805   0.0000   0.0000  -0.1304  -0.0000
 192 N_a :2px    0.0000   0.0000  -0.0000  -0.0524  -0.0305   0.0000   0.0179
 193 N_a :2py    0.0000  -0.0000  -0.0000   0.1097   0.0401   0.0000  -0.0470
 194 N_a :2pz   -0.0216   0.0339  -0.0376  -0.0000  -0.0000  -0.0368   0.0000
 195 N_a :2px   -0.0000  -0.0000   0.0000  -0.8654  -0.5191   0.0000  -0.0329
 196 N_a :2py    0.0000  -0.0000   0.0000   1.0010   0.4266   0.0000  -0.1834
 197 N_a :2pz   -0.0317   0.0599  -0.0838   0.0000   0.0000  -0.1763  -0.0000
 203 N_a :3d2-   0.0000  -0.0000   0.0000  -0.0048  -0.0069   0.0000  -0.0139
 207 N_a :3d2+   0.0000   0.0000  -0.0000   0.0067   0.0151   0.0000   0.0069
 210 N_b :1s    -0.0000  -0.0000   0.0000  -0.0443   0.0272  -0.0000  -0.0589
 211 N_b :1s    -0.0000  -0.0000   0.0000  -1.2263   0.5944   0.0000  -1.3602
 214 N_b :2pz    0.0243   0.0011  -0.0291  -0.0000   0.0000   0.3273  -0.0000
 216 N_b :2py    0.0000   0.0000  -0.0000   0.0172   0.0224   0.0000  -0.0219
 217 N_b :2pz   -0.0076  -0.0135  -0.0122   0.0000  -0.0000   0.0681   0.0000
 218 N_b :2px    0.0000  -0.0000   0.0000   0.3957  -0.0925  -0.0000   0.6318
 219 N_b :2py    0.0000  -0.0000  -0.0000  -0.1259   0.3737   0.0000  -0.6317
 220 N_b :2pz    0.0164   0.0118   0.0039  -0.0000   0.0000   0.2172  -0.0000
 222 N_b :3d1-   0.0140  -0.0113  -0.0088  -0.0000   0.0000   0.0145  -0.0000
 224 N_b :3d1+   0.0296   0.0117   0.0089  -0.0000   0.0000  -0.0152  -0.0000
 226 N_b :3d2-   0.0000  -0.0000   0.0000  -0.0213   0.0006  -0.0000  -0.0279
 227 N_b :3d1-  -0.0068  -0.0124  -0.0103   0.0000  -0.0000   0.0133   0.0000
 228 N_b :3d0    0.0000   0.0000  -0.0000   0.0110  -0.0038   0.0000   0.0092
 229 N_b :3d1+   0.0084   0.0123   0.0096   0.0000  -0.0000  -0.0149   0.0000
 230 N_b :3d2+   0.0000   0.0000  -0.0000  -0.0108   0.0012   0.0000  -0.0112
 233 O_a :1s    -0.0000   0.0000   0.0000   0.0241  -0.0070  -0.0000   0.0307
 234 O_a :1s    -0.0000   0.0000   0.0000   0.1288  -0.1437  -0.0000   0.0685
 237 O_a :2pz    0.4457   0.1271   0.0935   0.0000   0.0000  -0.2365  -0.0000
 238 O_a :2px    0.0000  -0.0000   0.0000  -0.0166   0.0082  -0.0000  -0.0146
 240 O_a :2pz    0.0326   0.0100   0.0098  -0.0000  -0.0000  -0.0434   0.0000
 241 O_a :2px   -0.0000   0.0000  -0.0000  -0.0932   0.0497   0.0000  -0.0855
 242 O_a :2py    0.0000   0.0000  -0.0000   0.0817  -0.0474   0.0000   0.1556
 243 O_a :2pz    0.0390   0.0111   0.0156   0.0000   0.0000  -0.1592  -0.0000
 252 O_a :3d1+  -0.0188  -0.0045  -0.0031  -0.0000  -0.0000   0.0037   0.0000
 256 O_b :1s     0.0000   0.0000  -0.0000   0.0172   0.0017   0.0000   0.0130
 257 O_b :1s     0.0000   0.0000  -0.0000   0.2352   0.0389   0.0000   0.0628
 260 O_b :2pz   -0.2553   0.1236   0.0994   0.0000  -0.0000  -0.2734   0.0000
 262 O_b :2py   -0.0000   0.0000  -0.0000   0.0182  -0.0003   0.0000   0.0104
 263 O_b :2pz   -0.0217   0.0089   0.0093  -0.0000   0.0000  -0.0486  -0.0000
 264 O_b :2px    0.0000  -0.0000  -0.0000  -0.0512   0.0590   0.0000  -0.1579
 265 O_b :2py    0.0000  -0.0000   0.0000   0.0527   0.0036  -0.0000   0.0518
 266 O_b :2pz   -0.0321   0.0131   0.0174   0.0000  -0.0000  -0.1840   0.0000
 273 O_b :3d1-  -0.0117   0.0047   0.0032   0.0000  -0.0000  -0.0042   0.0000
 277 H_a :1s     0.0000   0.0000   0.0000   0.0300   0.0065  -0.0000   0.0108
 278 H_a :1s    -0.0000  -0.0000   0.0000  -0.3512   0.0606   0.0000  -0.6958
 279 H_a :1s    -0.0000  -0.0000   0.0000  -2.0531   3.4450   0.0000  -0.8523
 283 H_a :2px    0.0000   0.0000  -0.0000   0.0509  -0.0013   0.0000   0.1317
 284 H_a :2py    0.0000   0.0000  -0.0000   0.0259   0.0394   0.0000   0.0058
 285 H_a :2pz    0.0031  -0.0050   0.0066   0.0000   0.0000   0.0169  -0.0000
 286 H_b :1s     0.0000   0.0000  -0.0000   0.0331   0.0048   0.0000   0.0245
 287 H_b :1s    -0.0000  -0.0000   0.0000  -0.3303   0.4131  -0.0000  -0.5543
 288 H_b :1s    -0.0000   0.0000  -0.0000  -0.5369  -3.1860  -0.0000  -1.7253
 292 H_b :2px    0.0000  -0.0000  -0.0000  -0.0397   0.1498   0.0000  -0.0939
 293 H_b :2py   -0.0000  -0.0000   0.0000   0.0191   0.0585  -0.0000  -0.0104
 295 H_c :1s     0.0000  -0.0000   0.0000   0.0043   0.0010   0.0000   0.0139
 296 H_c :1s    -0.0000   0.0000   0.0000  -0.0065  -0.0099  -0.0000  -0.0382
 297 H_c :1s     0.0000  -0.0000   0.0000  -1.2183  -1.6348   0.0000   0.3159
 301 H_c :2px    0.0000  -0.0000   0.0000   0.0578   0.0210   0.0000  -0.0296
 302 H_c :2py    0.0000  -0.0000  -0.0000  -0.0668  -0.0079   0.0000   0.0394
 305 H_d :1s    -0.0000   0.0000  -0.0000   0.0599   0.2194   0.0000   0.2069
 306 H_d :1s    -0.0000   0.0000  -0.0000  -1.8622   0.4917  -0.0000   1.6381
 309 H_d :2pz   -0.0077   0.0103  -0.0096   0.0000   0.0000  -0.0053  -0.0000
 310 H_d :2px    0.0000  -0.0000  -0.0000   0.0355   0.0333   0.0000  -0.0149
 311 H_d :2py    0.0000  -0.0000   0.0000  -0.0867  -0.0296  -0.0000  -0.0242
 313 H_e :1s    -0.0000   0.0000   0.0000   0.0142  -0.0095  -0.0000   0.0322
 314 H_e :1s     0.0000   0.0000  -0.0000  -0.1780  -0.8419  -0.0000  -0.6626
 315 H_e :1s     0.0000  -0.0000   0.0000   0.6759   2.0175  -0.0000  -1.0750
 319 H_e :2px   -0.0000  -0.0000  -0.0000  -0.0107   0.2073  -0.0000   0.1012
 320 H_e :2py    0.0000  -0.0000  -0.0000   0.0626   0.0824   0.0000   0.0234
 321 H_e :2pz    0.0016   0.0008  -0.0024  -0.0000  -0.0000  -0.0101   0.0000
 322 H_f :1s     0.0000   0.0000   0.0000   0.0085   0.0062  -0.0000   0.0379
 323 H_f :1s     0.0000   0.0000   0.0000  -0.2704   0.6296  -0.0000  -0.4095
 324 H_f :1s     0.0000   0.0000  -0.0000   0.1561  -2.2076   0.0000  -1.6802
 328 H_f :2px    0.0000   0.0000  -0.0000  -0.0542   0.1637  -0.0000  -0.0345
 329 H_f :2py    0.0000  -0.0000   0.0000   0.0146   0.0509  -0.0000  -0.0585
 331 H_g :1s     0.0000   0.0000   0.0000   0.0041  -0.0022  -0.0000   0.0301
 332 H_g :1s    -0.0000  -0.0000   0.0000  -0.1856  -0.1955   0.0000  -0.7419
 333 H_g :1s    -0.0000   0.0000  -0.0000  -0.9357   1.6589   0.0000  -1.3178
 337 H_g :2px    0.0000   0.0000  -0.0000   0.0280   0.0620   0.0000   0.1275
 338 H_g :2py   -0.0000  -0.0000  -0.0000   0.0596   0.0098   0.0000   0.0394
 339 H_g :2pz    0.0005   0.0022   0.0006  -0.0000  -0.0000   0.0101  -0.0000
 340 H_h :1s    -0.0000  -0.0000   0.0000   0.0050   0.0018  -0.0000   0.0280
 341 H_h :1s     0.0000   0.0000  -0.0000   0.0215   0.0993   0.0000  -0.5140
 342 H_h :1s     0.0000  -0.0000   0.0000  -0.1620  -0.6422  -0.0000  -1.5346
 346 H_h :2px    0.0000   0.0000  -0.0000   0.0031   0.0295  -0.0000  -0.0457
 347 H_h :2py   -0.0000  -0.0000   0.0000  -0.0017  -0.0105  -0.0000  -0.0613
 349 H_i :1s    -0.0000  -0.0000  -0.0000   0.0020   0.0011   0.0000   0.0183
[...]

       No.  Residual tot.,    conf., and orb.    Bnorm      Frequency 
      ----------------------------------------------------------------
         1    5.90253D-02  0.00D+00  5.90D-02  3.38D+01    0.00000D+00
         2    6.13745D-02  0.00D+00  6.14D-02  3.52D+01    2.33000D-02
         3    6.95582D-02  0.00D+00  6.96D-02  3.98D+01    4.66000D-02

 ** RSPCTL MICROITERATION NUMBER    7

       No.  Residual tot.,    conf., and orb.    Bnorm      Frequency 
      ----------------------------------------------------------------
         1    2.05325D-02  0.00D+00  2.05D-02  3.38D+01    0.00000D+00
         2    2.14673D-02  0.00D+00  2.15D-02  3.52D+01    2.33000D-02
         3    2.47539D-02  0.00D+00  2.48D-02  3.98D+01    4.66000D-02

 *** THE REQUESTED    3 SOLUTION VECTORS CONVERGED

 Convergence of RSP solution vectors, threshold = 1.00D-03
 ---------------------------------------------------------------
 (dimension of paired reduced space:   42)
 RSP solution vector no.    1; norm of residual   6.07D-04
 RSP solution vector no.    2; norm of residual   6.10D-04
 RSP solution vector no.    3; norm of residual   6.22D-04

 *** RSPCTL MICROITERATIONS CONVERGED

@ QRLRVE: SINGLET SOLUTION FOR SYMMETRY    1  ( A  )    LABEL   YDIPLEN     FREQUENCY   0.000000D+00

@ QRLRVE:  << XDIPLEN  ; YDIPLEN  >> (   0.00000):    -58.2640101461    

@ QRLRVE:  << YDIPLEN  ; YDIPLEN  >> (   0.00000):     407.812749064    

@ QRLRVE:  << ZDIPLEN  ; YDIPLEN  >> (   0.00000):    2.275095496989E-14

@ QRLRVE: SINGLET SOLUTION FOR SYMMETRY    1  ( A  )    LABEL   YDIPLEN     FREQUENCY   0.233000D-01

@ QRLRVE:  << XDIPLEN  ; YDIPLEN  >> (   0.02330):    -60.0051695152    

@ QRLRVE:  << YDIPLEN  ; YDIPLEN  >> (   0.02330):     416.605212355    

@ QRLRVE:  << ZDIPLEN  ; YDIPLEN  >> (   0.02330):    2.419821036522E-14

@ QRLRVE: SINGLET SOLUTION FOR SYMMETRY    1  ( A  )    LABEL   YDIPLEN     FREQUENCY   0.466000D-01

@ QRLRVE:  << XDIPLEN  ; YDIPLEN  >> (   0.04660):    -65.8993639227    

@ QRLRVE:  << YDIPLEN  ; YDIPLEN  >> (   0.04660):     446.191839372    

@ QRLRVE:  << ZDIPLEN  ; YDIPLEN  >> (   0.04660):    2.921587046117E-14


 QRLRVE -- linear response calculation for symmetry  1  ( A  )
 QRLRVE -- operator label : ZDIPLEN 
 QRLRVE -- operator spin  :   0
 QRLRVE -- frequencies :  0.000000  0.023300  0.046600



 ---  SOLVING SETS OF LINEAR EQUATIONS FOR LINEAR RESPONSE PROPERTIES ---

 Operator symmetry = 1  ( A  ); triplet =   F


 ** RSPCTL MICROITERATION NUMBER    1

       No.  Residual tot.,    conf., and orb.    Bnorm      Frequency 
      ----------------------------------------------------------------
         1    2.74172D+00  0.00D+00  2.74D+00  6.80D+00    0.00000D+00
         2    2.74531D+00  0.00D+00  2.75D+00  6.83D+00    2.33000D-02
         3    2.75622D+00  0.00D+00  2.76D+00  6.92D+00    4.66000D-02

 ** RSPCTL MICROITERATION NUMBER    2

       No.  Residual tot.,    conf., and orb.    Bnorm      Frequency 
      ----------------------------------------------------------------
         1    5.86769D-01  0.00D+00  5.87D-01  7.14D+00    0.00000D+00
         2    5.89200D-01  0.00D+00  5.89D-01  7.17D+00    2.33000D-02
         3    5.96628D-01  0.00D+00  5.97D-01  7.27D+00    4.66000D-02

 ** RSPCTL MICROITERATION NUMBER    3

       No.  Residual tot.,    conf., and orb.    Bnorm      Frequency 
      ----------------------------------------------------------------
         1    1.29234D-01  0.00D+00  1.29D-01  7.16D+00    0.00000D+00
         2    1.30688D-01  0.00D+00  1.31D-01  7.20D+00    2.33000D-02
         3    1.35187D-01  0.00D+00  1.35D-01  7.30D+00    4.66000D-02

 ** RSPCTL MICROITERATION NUMBER    4

       No.  Residual tot.,    conf., and orb.    Bnorm      Frequency 
      ----------------------------------------------------------------
         1    3.32997D-02  0.00D+00  3.33D-02  7.17D+00    0.00000D+00
         2    3.42989D-02  0.00D+00  3.43D-02  7.20D+00    2.33000D-02
         3    3.75051D-02  0.00D+00  3.75D-02  7.30D+00    4.66000D-02

 ** RSPCTL MICROITERATION NUMBER    5

       No.  Residual tot.,    conf., and orb.    Bnorm      Frequency 
      ----------------------------------------------------------------
         1    1.37526D-02  0.00D+00  1.38D-02  7.17D+00    0.00000D+00
         2    1.44260D-02  0.00D+00  1.44D-02  7.20D+00    2.33000D-02
         3    1.65999D-02  0.00D+00  1.66D-02  7.30D+00    4.66000D-02

 ** RSPCTL MICROITERATION NUMBER    6

       No.  Residual tot.,    conf., and orb.    Bnorm      Frequency 
      ----------------------------------------------------------------
         1    4.63647D-03  0.00D+00  4.64D-03  7.17D+00    0.00000D+00
         2    4.97182D-03  0.00D+00  4.97D-03  7.20D+00    2.33000D-02
         3    6.08653D-03  0.00D+00  6.09D-03  7.30D+00    4.66000D-02

 *** THE REQUESTED    3 SOLUTION VECTORS CONVERGED

 Convergence of RSP solution vectors, threshold = 1.00D-03
 ---------------------------------------------------------------
 (dimension of paired reduced space:   36)
 RSP solution vector no.    1; norm of residual   6.47D-04
 RSP solution vector no.    2; norm of residual   6.90D-04
 RSP solution vector no.    3; norm of residual   8.33D-04

 *** RSPCTL MICROITERATIONS CONVERGED

@ QRLRVE: SINGLET SOLUTION FOR SYMMETRY    1  ( A  )    LABEL   ZDIPLEN     FREQUENCY   0.000000D+00

@ QRLRVE:  << XDIPLEN  ; ZDIPLEN  >> (   0.00000):   -6.619739468577E-15

@ QRLRVE:  << YDIPLEN  ; ZDIPLEN  >> (   0.00000):    1.883353697690E-14

@ QRLRVE:  << ZDIPLEN  ; ZDIPLEN  >> (   0.00000):     75.4166902315    

@ QRLRVE: SINGLET SOLUTION FOR SYMMETRY    1  ( A  )    LABEL   ZDIPLEN     FREQUENCY   0.233000D-01

@ QRLRVE:  << XDIPLEN  ; ZDIPLEN  >> (   0.02330):   -7.267563050781E-15

@ QRLRVE:  << YDIPLEN  ; ZDIPLEN  >> (   0.02330):    1.975097151646E-14

@ QRLRVE:  << ZDIPLEN  ; ZDIPLEN  >> (   0.02330):     75.5549928068    

@ QRLRVE: SINGLET SOLUTION FOR SYMMETRY    1  ( A  )    LABEL   ZDIPLEN     FREQUENCY   0.466000D-01

@ QRLRVE:  << XDIPLEN  ; ZDIPLEN  >> (   0.04660):   -9.515997653728E-15

@ QRLRVE:  << YDIPLEN  ; ZDIPLEN  >> (   0.04660):    2.280264702114E-14

@ QRLRVE:  << ZDIPLEN  ; ZDIPLEN  >> (   0.04660):     75.9758780314    
 
 ======================================================================
 ---  L I N E A R   R E S P O N S E   F U N C T I O N S --- 
 ======================================================================

 The -<<A;B>>(omega_b) functions from vectors generated
 in a *QUADRA calculation of <<A;B,C>>(omega_b,omega_c)

 Note: the accuracy of off-diagonal elements will be linear
 in the convergence threshold THCLR =  1.00D-03


 Perturbation symmetry.     KSYMOP:           1
 Perturbation spin symmetry.TRPLET:           F
 Orbital variables.         KZWOPT:       14168
 Configuration variables.   KZCONF:           0
 Total number of variables. KZVAR :       14168

@ Singlet linear response function in a.u.

@ A operator, symmetry, frequency:   XDIPLEN    1 -0.000000
@ B operator, symmetry, frequency:   XDIPLEN    1  0.000000

@ Value of linear response -<<A;B>>(omega):     118.558754995148

@ Singlet linear response function in a.u.

@ A operator, symmetry, frequency:   YDIPLEN    1 -0.000000
@ B operator, symmetry, frequency:   XDIPLEN    1  0.000000

@ Value of linear response -<<A;B>>(omega):     -58.259751920971

@ Singlet linear response function in a.u.

@ A operator, symmetry, frequency:   ZDIPLEN    1 -0.000000
@ B operator, symmetry, frequency:   XDIPLEN    1  0.000000

@ Value of linear response -<<A;B>>(omega):      -0.000000000000

@ Singlet linear response function in a.u.

@ A operator, symmetry, frequency:   XDIPLEN    1 -0.023300
@ B operator, symmetry, frequency:   XDIPLEN    1  0.023300

@ Value of linear response -<<A;B>>(omega):     119.161327435027

@ Singlet linear response function in a.u.

@ A operator, symmetry, frequency:   YDIPLEN    1 -0.023300
@ B operator, symmetry, frequency:   XDIPLEN    1  0.023300

@ Value of linear response -<<A;B>>(omega):     -60.000803791983

@ Singlet linear response function in a.u.

@ A operator, symmetry, frequency:   ZDIPLEN    1 -0.023300
@ B operator, symmetry, frequency:   XDIPLEN    1  0.023300

@ Value of linear response -<<A;B>>(omega):      -0.000000000000

@ Singlet linear response function in a.u.

@ A operator, symmetry, frequency:   XDIPLEN    1 -0.000000
@ B operator, symmetry, frequency:   YDIPLEN    1  0.000000

@ Value of linear response -<<A;B>>(omega):     -58.264010146087

@ Singlet linear response function in a.u.

@ A operator, symmetry, frequency:   YDIPLEN    1 -0.000000
@ B operator, symmetry, frequency:   YDIPLEN    1  0.000000

@ Value of linear response -<<A;B>>(omega):     407.812749063785

@ Singlet linear response function in a.u.

@ A operator, symmetry, frequency:   ZDIPLEN    1 -0.000000
@ B operator, symmetry, frequency:   YDIPLEN    1  0.000000

@ Value of linear response -<<A;B>>(omega):       0.000000000000

@ Singlet linear response function in a.u.

@ A operator, symmetry, frequency:   XDIPLEN    1 -0.023300
@ B operator, symmetry, frequency:   YDIPLEN    1  0.023300

@ Value of linear response -<<A;B>>(omega):     -60.005169515231

@ Singlet linear response function in a.u.

@ A operator, symmetry, frequency:   YDIPLEN    1 -0.023300
@ B operator, symmetry, frequency:   YDIPLEN    1  0.023300

@ Value of linear response -<<A;B>>(omega):     416.605212355460

@ Singlet linear response function in a.u.

@ A operator, symmetry, frequency:   ZDIPLEN    1 -0.023300
@ B operator, symmetry, frequency:   YDIPLEN    1  0.023300

@ Value of linear response -<<A;B>>(omega):       0.000000000000

@ Singlet linear response function in a.u.

@ A operator, symmetry, frequency:   XDIPLEN    1 -0.000000
@ B operator, symmetry, frequency:   ZDIPLEN    1  0.000000

@ Value of linear response -<<A;B>>(omega):      -0.000000000000

@ Singlet linear response function in a.u.

@ A operator, symmetry, frequency:   YDIPLEN    1 -0.000000
@ B operator, symmetry, frequency:   ZDIPLEN    1  0.000000

@ Value of linear response -<<A;B>>(omega):       0.000000000000

@ Singlet linear response function in a.u.

@ A operator, symmetry, frequency:   ZDIPLEN    1 -0.000000
@ B operator, symmetry, frequency:   ZDIPLEN    1  0.000000

@ Value of linear response -<<A;B>>(omega):      75.416690231539

@ Singlet linear response function in a.u.

@ A operator, symmetry, frequency:   XDIPLEN    1 -0.023300
@ B operator, symmetry, frequency:   ZDIPLEN    1  0.023300

@ Value of linear response -<<A;B>>(omega):      -0.000000000000

@ Singlet linear response function in a.u.

@ A operator, symmetry, frequency:   YDIPLEN    1 -0.023300
@ B operator, symmetry, frequency:   ZDIPLEN    1  0.023300

@ Value of linear response -<<A;B>>(omega):       0.000000000000

@ Singlet linear response function in a.u.

@ A operator, symmetry, frequency:   ZDIPLEN    1 -0.023300
@ B operator, symmetry, frequency:   ZDIPLEN    1  0.023300

@ Value of linear response -<<A;B>>(omega):      75.554992806782


  Results from quadratic response calculation
 --------------------------------------------

@ B-freq = 0.000000  C-freq = 0.000000     beta(X;X,X) =   -342.59965851
@ B-freq = 0.000000  C-freq = 0.000000     beta(Y;X,X) =   1195.35184635
@ B-freq = 0.000000  C-freq = 0.000000     beta(Z;X,X) =      0.00000000
@ B-freq = 0.023300  C-freq = 0.000000     beta(X;X,X) =   -359.27540967
@ B-freq = 0.023300  C-freq = 0.000000     beta(Y;X,X) =   1254.91064373
@ B-freq = 0.023300  C-freq = 0.000000     beta(Z;X,X) =      0.00000000
@ B-freq = 0.000000  C-freq = 0.000000     beta(X;Y,X) = beta(Y,X,X)
@ B-freq = 0.000000  C-freq = 0.000000     beta(X;Y,X) =   1195.35189421
@ B-freq = 0.000000  C-freq = 0.000000     beta(Y;Y,X) =  -3172.69297246
@ B-freq = 0.000000  C-freq = 0.000000     beta(Z;Y,X) =     -0.00000000
@ B-freq = 0.023300  C-freq = 0.000000     beta(X;Y,X) =   1254.91069362
@ B-freq = 0.023300  C-freq = 0.000000     beta(Y;Y,X) =  -3367.78266448
@ B-freq = 0.023300  C-freq = 0.000000     beta(Z;Y,X) =     -0.00000000
@ B-freq = 0.000000  C-freq = 0.000000     beta(X;Z,X) = beta(Z,X,X)
@ B-freq = 0.000000  C-freq = 0.000000     beta(Y;Z,X) = beta(Z,Y,X)
@ B-freq = 0.000000  C-freq = 0.000000     beta(X;Z,X) =      0.00000000
@ B-freq = 0.000000  C-freq = 0.000000     beta(Y;Z,X) =     -0.00000000
@ B-freq = 0.000000  C-freq = 0.000000     beta(Z;Z,X) =     18.66992428
@ B-freq = 0.023300  C-freq = 0.000000     beta(X;Z,X) =      0.00000000
@ B-freq = 0.023300  C-freq = 0.000000     beta(Y;Z,X) =     -0.00000000
@ B-freq = 0.023300  C-freq = 0.000000     beta(Z;Z,X) =     18.89313317
@ B-freq = 0.000000  C-freq = 0.023300     beta(X;X,X) = beta(X,X,X)
@ B-freq = 0.000000  C-freq = 0.023300     beta(Y;X,X) = beta(Y,X,X)
@ B-freq = 0.000000  C-freq = 0.023300     beta(Z;X,X) = beta(Z,X,X)
@ B-freq = 0.023300  C-freq = 0.023300     beta(X;X,X) =   -396.74862530
@ B-freq = 0.023300  C-freq = 0.023300     beta(Y;X,X) =   1404.72141825
@ B-freq = 0.023300  C-freq = 0.023300     beta(Z;X,X) =      0.00000000
@ B-freq = 0.000000  C-freq = 0.023300     beta(X;Y,X) =   1241.96078213
@ B-freq = 0.000000  C-freq = 0.023300     beta(Y;Y,X) =  -3319.00287401
@ B-freq = 0.000000  C-freq = 0.023300     beta(Z;Y,X) =     -0.00000000
@ B-freq = 0.023300  C-freq = 0.023300     beta(X;Y,X) =   1360.24010773
@ B-freq = 0.023300  C-freq = 0.023300     beta(Y;Y,X) =  -3759.67727792
@ B-freq = 0.023300  C-freq = 0.023300     beta(Z;Y,X) =     -0.00000000
@ B-freq = 0.000000  C-freq = 0.023300     beta(X;Z,X) =      0.00000000
@ B-freq = 0.000000  C-freq = 0.023300     beta(Y;Z,X) =     -0.00000000
@ B-freq = 0.000000  C-freq = 0.023300     beta(Z;Z,X) =     18.97153445
@ B-freq = 0.023300  C-freq = 0.023300     beta(X;Z,X) =      0.00000000
@ B-freq = 0.023300  C-freq = 0.023300     beta(Y;Z,X) =     -0.00000000
@ B-freq = 0.023300  C-freq = 0.023300     beta(Z;Z,X) =     19.43887017
@ B-freq = 0.000000  C-freq = 0.000000     beta(X;X,Y) = beta(Y,X,X)
@ B-freq = 0.000000  C-freq = 0.000000     beta(Y;X,Y) = beta(Y,Y,X)
@ B-freq = 0.000000  C-freq = 0.000000     beta(Z;X,Y) = beta(Z,Y,X)
@ B-freq = 0.023300  C-freq = 0.000000     beta(X;X,Y) = beta(X,Y,X)
@ B-freq = 0.023300  C-freq = 0.000000     beta(Y;X,Y) = beta(Y,Y,X)
@ B-freq = 0.023300  C-freq = 0.000000     beta(Z;X,Y) = beta(Z,Y,X)
@ B-freq = 0.000000  C-freq = 0.000000     beta(X;Y,Y) = beta(Y,Y,X)
@ B-freq = 0.000000  C-freq = 0.000000     beta(X;Y,Y) =  -3172.69370241
@ B-freq = 0.000000  C-freq = 0.000000     beta(Y;Y,Y) =   5893.17219354
@ B-freq = 0.000000  C-freq = 0.000000     beta(Z;Y,Y) =      0.00000000
@ B-freq = 0.023300  C-freq = 0.000000     beta(X;Y,Y) =  -3319.00364455
@ B-freq = 0.023300  C-freq = 0.000000     beta(Y;Y,Y) =   6278.43961950
@ B-freq = 0.023300  C-freq = 0.000000     beta(Z;Y,Y) =      0.00000000
@ B-freq = 0.000000  C-freq = 0.000000     beta(X;Z,Y) = beta(Z,Y,X)
@ B-freq = 0.000000  C-freq = 0.000000     beta(Y;Z,Y) = beta(Z,Y,Y)
@ B-freq = 0.000000  C-freq = 0.000000     beta(X;Z,Y) =     -0.00000000
@ B-freq = 0.000000  C-freq = 0.000000     beta(Y;Z,Y) =      0.00000000
@ B-freq = 0.000000  C-freq = 0.000000     beta(Z;Z,Y) =    -40.10773561
@ B-freq = 0.023300  C-freq = 0.000000     beta(X;Z,Y) =     -0.00000000
@ B-freq = 0.023300  C-freq = 0.000000     beta(Y;Z,Y) =      0.00000000
@ B-freq = 0.023300  C-freq = 0.000000     beta(Z;Z,Y) =    -40.85143619
@ B-freq = 0.000000  C-freq = 0.023300     beta(X;X,Y) = beta(X,Y,X)
@ B-freq = 0.000000  C-freq = 0.023300     beta(Y;X,Y) = beta(Y,Y,X)
@ B-freq = 0.000000  C-freq = 0.023300     beta(Z;X,Y) = beta(Z,Y,X)
@ B-freq = 0.023300  C-freq = 0.023300     beta(X;X,Y) = beta(X,Y,X)
@ B-freq = 0.023300  C-freq = 0.023300     beta(Y;X,Y) = beta(Y,Y,X)
@ B-freq = 0.023300  C-freq = 0.023300     beta(Z;X,Y) = beta(Z,Y,X)
@ B-freq = 0.000000  C-freq = 0.023300     beta(X;Y,Y) = beta(X,Y,Y)
@ B-freq = 0.000000  C-freq = 0.023300     beta(Y;Y,Y) = beta(Y,Y,Y)
@ B-freq = 0.000000  C-freq = 0.023300     beta(Z;Y,Y) = beta(Z,Y,Y)
@ B-freq = 0.023300  C-freq = 0.023300     beta(X;Y,Y) =  -3592.44038243
@ B-freq = 0.023300  C-freq = 0.023300     beta(Y;Y,Y) =   7163.49650512
@ B-freq = 0.023300  C-freq = 0.023300     beta(Z;Y,Y) =      0.00000000
@ B-freq = 0.000000  C-freq = 0.023300     beta(X;Z,Y) =     -0.00000000
@ B-freq = 0.000000  C-freq = 0.023300     beta(Y;Z,Y) =      0.00000000
@ B-freq = 0.000000  C-freq = 0.023300     beta(Z;Z,Y) =    -41.17312230
@ B-freq = 0.023300  C-freq = 0.023300     beta(X;Z,Y) =     -0.00000000
@ B-freq = 0.023300  C-freq = 0.023300     beta(Y;Z,Y) =      0.00000000
@ B-freq = 0.023300  C-freq = 0.023300     beta(Z;Z,Y) =    -42.75245301
@ B-freq = 0.000000  C-freq = 0.000000     beta(X;X,Z) = beta(Z,X,X)
@ B-freq = 0.000000  C-freq = 0.000000     beta(Y;X,Z) = beta(Z,Y,X)
@ B-freq = 0.000000  C-freq = 0.000000     beta(Z;X,Z) = beta(Z,Z,X)
@ B-freq = 0.023300  C-freq = 0.000000     beta(X;X,Z) = beta(X,Z,X)
@ B-freq = 0.023300  C-freq = 0.000000     beta(Y;X,Z) = beta(Y,Z,X)
@ B-freq = 0.023300  C-freq = 0.000000     beta(Z;X,Z) = beta(Z,Z,X)
@ B-freq = 0.000000  C-freq = 0.000000     beta(X;Y,Z) = beta(Z,Y,X)
@ B-freq = 0.000000  C-freq = 0.000000     beta(Y;Y,Z) = beta(Z,Y,Y)
@ B-freq = 0.000000  C-freq = 0.000000     beta(Z;Y,Z) = beta(Z,Z,Y)
@ B-freq = 0.023300  C-freq = 0.000000     beta(X;Y,Z) = beta(X,Z,Y)
@ B-freq = 0.023300  C-freq = 0.000000     beta(Y;Y,Z) = beta(Y,Z,Y)
@ B-freq = 0.023300  C-freq = 0.000000     beta(Z;Y,Z) = beta(Z,Z,Y)
@ B-freq = 0.000000  C-freq = 0.000000     beta(X;Z,Z) = beta(Z,Z,X)
@ B-freq = 0.000000  C-freq = 0.000000     beta(Y;Z,Z) = beta(Z,Z,Y)
@ B-freq = 0.000000  C-freq = 0.000000     beta(X;Z,Z) =     18.66990918
@ B-freq = 0.000000  C-freq = 0.000000     beta(Y;Z,Z) =    -40.10769735
@ B-freq = 0.000000  C-freq = 0.000000     beta(Z;Z,Z) =      0.00000000
@ B-freq = 0.023300  C-freq = 0.000000     beta(X;Z,Z) =     18.97151883
@ B-freq = 0.023300  C-freq = 0.000000     beta(Y;Z,Z) =    -41.17308198
@ B-freq = 0.023300  C-freq = 0.000000     beta(Z;Z,Z) =      0.00000000
@ B-freq = 0.000000  C-freq = 0.023300     beta(X;X,Z) = beta(X,Z,X)
@ B-freq = 0.000000  C-freq = 0.023300     beta(Y;X,Z) = beta(Y,Z,X)
@ B-freq = 0.000000  C-freq = 0.023300     beta(Z;X,Z) = beta(Z,Z,X)
@ B-freq = 0.023300  C-freq = 0.023300     beta(X;X,Z) = beta(X,Z,X)
@ B-freq = 0.023300  C-freq = 0.023300     beta(Y;X,Z) = beta(Y,Z,X)
@ B-freq = 0.023300  C-freq = 0.023300     beta(Z;X,Z) = beta(Z,Z,X)
@ B-freq = 0.000000  C-freq = 0.023300     beta(X;Y,Z) = beta(X,Z,Y)
@ B-freq = 0.000000  C-freq = 0.023300     beta(Y;Y,Z) = beta(Y,Z,Y)
@ B-freq = 0.000000  C-freq = 0.023300     beta(Z;Y,Z) = beta(Z,Z,Y)
@ B-freq = 0.023300  C-freq = 0.023300     beta(X;Y,Z) = beta(X,Z,Y)
@ B-freq = 0.023300  C-freq = 0.023300     beta(Y;Y,Z) = beta(Y,Z,Y)
@ B-freq = 0.023300  C-freq = 0.023300     beta(Z;Y,Z) = beta(Z,Z,Y)
@ B-freq = 0.000000  C-freq = 0.023300     beta(X;Z,Z) = beta(X,Z,Z)
@ B-freq = 0.000000  C-freq = 0.023300     beta(Y;Z,Z) = beta(Y,Z,Z)
@ B-freq = 0.000000  C-freq = 0.023300     beta(Z;Z,Z) = beta(Z,Z,Z)
@ B-freq = 0.023300  C-freq = 0.023300     beta(X;Z,Z) =     19.71684068
@ B-freq = 0.023300  C-freq = 0.023300     beta(Y;Z,Z) =    -43.91362491
@ B-freq = 0.023300  C-freq = 0.023300     beta(Z;Z,Z) =      0.00000000

  Total CPU  time used in RESPONSE:  1 minute  43 seconds
  Total wall time used in RESPONSE:  1 minute  44 seconds


                   .-------------------------------------------.
                   | End of Dynamic Property Section (RESPONS) |
                   `-------------------------------------------'

  Total CPU  time used in DALTON:  2 minutes 17 seconds
  Total wall time used in DALTON:  2 minutes 18 seconds

 
     Date and time (Linux)  : Thu May  8 15:02:50 2025
     Host name              : xm046                                   
