

     ************************************************************************
     *************** Dalton - An Electronic Structure Program ***************
     ************************************************************************

    This is output from DALTON release Dalton2020.0 (2020)
         ( Web site: http://daltonprogram.org )

   ----------------------------------------------------------------------------

    NOTE:
     
    Dalton is an experimental code for the evaluation of molecular
    properties using (MC)SCF, DFT, CI, and CC wave functions.
    The authors accept no responsibility for the performance of
    the code or for the correctness of the results.
     
    The code (in whole or part) is provided under a licence and
    is not to be reproduced for further distribution without
    the written permission of the authors or their representatives.
     
    See the home page "http://daltonprogram.org" for further information.
     
    If results obtained with this code are published,
    the appropriate citations would be both of:
     
       K. Aidas, C. Angeli, K. L. Bak, V. Bakken, R. Bast,
       L. Boman, O. Christiansen, R. Cimiraglia, S. Coriani,
       P. Dahle, E. K. Dalskov, U. Ekstroem,
       T. Enevoldsen, J. J. Eriksen, P. Ettenhuber, B. Fernandez,
       L. Ferrighi, H. Fliegl, L. Frediani, K. Hald, A. Halkier,
       C. Haettig, H. Heiberg, T. Helgaker, A. C. Hennum,
       H. Hettema, E. Hjertenaes, S. Hoest, I.-M. Hoeyvik,
       M. F. Iozzi, B. Jansik, H. J. Aa. Jensen, D. Jonsson,
       P. Joergensen, J. Kauczor, S. Kirpekar,
       T. Kjaergaard, W. Klopper, S. Knecht, R. Kobayashi, H. Koch,
       J. Kongsted, A. Krapp, K. Kristensen, A. Ligabue,
       O. B. Lutnaes, J. I. Melo, K. V. Mikkelsen, R. H. Myhre,
       C. Neiss, C. B. Nielsen, P. Norman, J. Olsen,
       J. M. H. Olsen, A. Osted, M. J. Packer, F. Pawlowski,
       T. B. Pedersen, P. F. Provasi, S. Reine, Z. Rinkevicius,
       T. A. Ruden, K. Ruud, V. Rybkin, P. Salek, C. C. M. Samson,
       A. Sanchez de Meras, T. Saue, S. P. A. Sauer,
       B. Schimmelpfennig, K. Sneskov, A. H. Steindal,
       K. O. Sylvester-Hvid, P. R. Taylor, A. M. Teale,
       E. I. Tellgren, D. P. Tew, A. J. Thorvaldsen, L. Thoegersen,
       O. Vahtras, M. A. Watson, D. J. D. Wilson, M. Ziolkowski
       and H. Agren,
       "The Dalton quantum chemistry program system",
       WIREs Comput. Mol. Sci. 2014, 4:269–284 (doi: 10.1002/wcms.1172)
     
    and
     
       Dalton, a molecular electronic structure program,
       Release Dalton2020.0 (2020), see http://daltonprogram.org
   ----------------------------------------------------------------------------

    Authors in alphabetical order (Major contribution(s) in parenthesis):

  Kestutis Aidas,           Vilnius University,           Lithuania   (QM/MM)
  Celestino Angeli,         University of Ferrara,        Italy       (NEVPT2)
  Keld L. Bak,              UNI-C,                        Denmark     (AOSOPPA, non-adiabatic coupling, magnetic properties)
  Vebjoern Bakken,          University of Oslo,           Norway      (DALTON; geometry optimizer, symmetry detection)
  Radovan Bast,             UiT The Arctic U. of Norway,  Norway      (DALTON installation and execution frameworks)
  Pablo Baudin,             University of Valencia,       Spain       (Cholesky excitation energies)
  Linus Boman,              NTNU,                         Norway      (Cholesky decomposition and subsystems)
  Bruno N. Cabral Tenorio,  Technical Univ. of Denmark,   Denmark     (Lanczos-based CC methods)
  Ove Christiansen,         Aarhus University,            Denmark     (CC module)
  Renzo Cimiraglia,         University of Ferrara,        Italy       (NEVPT2)
  Sonia Coriani,            Technical Univ. of Denmark,   Denmark     (CC and RESPONS modules)
  Janusz Cukras,            University of Warsaw,         Poland      (MChD in RESPONS)
  Paal Dahle,               University of Oslo,           Norway      (Parallelization)
  Erik K. Dalskov,          UNI-C,                        Denmark     (SOPPA)
  Thomas Enevoldsen,        Univ. of Southern Denmark,    Denmark     (SOPPA)
  Janus J. Eriksen,         Aarhus University,            Denmark     (Polarizable embedding, TDA)
  Rasmus Faber,             Technical Univ. of Denmark,   Denmark     (Vib.avg. NMR w. SOPPA, parallel AO-SOPPA, CVS-CC and EOMCC)
  Tobias Fahleson,          KTH Stockholm,                Sweden      (Damped cubic response)
  Berta Fernandez,          U. of Santiago de Compostela, Spain       (Doublet spin, ESR in RESPONS)
  Lara Ferrighi,            Aarhus University,            Denmark     (PCM Cubic response)
  Heike Fliegl,             University of Oslo,           Norway      (CCSD(R12))
  Luca Frediani,            UiT The Arctic U. of Norway,  Norway      (PCM)
  Emmanuel Fromager,        Univ. Strasbourg,             France      (MC-srDFT)
  Bin Gao,                  UiT The Arctic U. of Norway,  Norway      (Gen1Int library)
  Andre S. P. Gomes,        CNRS/Universite de Lille,     France      (Frozen density embedding)
  Christof Haettig,         Ruhr-University Bochum,       Germany     (CC module)
  Kasper Hald,              Aarhus University,            Denmark     (CC module)
  Asger Halkier,            Aarhus University,            Denmark     (CC module)
  Frederik Beyer Hansen,    University of Copenhagen,     Denmark     (Parallel AO-SOPPA)
  Erik D. Hedegaard,        Univ. of Southern Denmark,    Denmark     (Polarizable embedding, QM/MM, and MC-srDFT)
  Hanne Heiberg,            University of Oslo,           Norway      (Geometry analysis, selected one-electron integrals)
  Trygve Helgaker,          University of Oslo,           Norway      (DALTON; ABACUS, ERI, DFT modules, London, and much more)
  Alf Christian Hennum,     University of Oslo,           Norway      (Parity violation)
  Hinne Hettema,            University of Auckland,       New Zealand (Quadratic response in RESPONS; SIRIUS supersymmetry)
  Eirik Hjertenaes,         NTNU,                         Norway      (Cholesky decomposition)
  Pi A. B. Haase,           University of Copenhagen,     Denmark     (Triplet AO-SOPPA)
  Maria Francesca Iozzi,    University of Oslo,           Norway      (RPA)
  Christoph Jacob           TU Braunschweig               Germany     (Frozen density embedding)
  Brano Jansik              Technical Univ. of Ostrava    Czech Rep.  (DFT cubic response)
  Hans Joergen Aa. Jensen,  Univ. of Southern Denmark,    Denmark     (DALTON; SIRIUS, RESPONS, ABACUS, MC-srDFT, and much more)
  Dan Jonsson,              UiT The Arctic U. of Norway,  Norway      (Cubic response in RESPONS module)
  Poul Joergensen,          Aarhus University,            Denmark     (RESPONS, ABACUS, and CC modules)
  Maciej Kaminski,          University of Warsaw,         Poland      (CPPh in RESPONS)
  Joanna Kauczor,           Linkoeping University,        Sweden      (Complex polarization propagator (CPP) module)
  Sheela Kirpekar,          Univ. of Southern Denmark,    Denmark     (Mass-velocity & Darwin integrals)
  Erik Kjellgren,           Univ. of Southern Denmark,    Denmark     (MC-srDFT)
  Wim Klopper,              KIT Karlsruhe,                Germany     (R12 code in CC, SIRIUS, and ABACUS modules)
  Stefan Knecht,            ETH Zurich,                   Switzerland (Parallel CI and MCSCF, MC-srDFT)
  Rika Kobayashi,           Australian National Univ.,    Australia   (DIIS in CC, London in MCSCF)
  Henrik Koch,              NTNU,                         Norway      (CC module, Cholesky decomposition)
  Jacob Kongsted,           Univ. of Southern Denmark,    Denmark     (Polarizable embedding, polarizable density embedding, QM/MM)
  Andrea Ligabue,           University of Modena,         Italy       (CTOCD, AOSOPPA)
  Nanna H. List             Univ. of Southern Denmark,    Denmark     (Polarizable embedding)
  Ola B. Lutnaes,           University of Oslo,           Norway      (DFT Hessian)
  Juan I. Melo,             University of Buenos Aires,   Argentina   (LRESC, Relativistic Effects on NMR Shieldings)
  Kurt V. Mikkelsen,        University of Copenhagen,     Denmark     (MC-SCRF and QM/MM)
  Rolf H. Myhre,            NTNU,                         Norway      (Subsystems and CC3)
  Christian Neiss,          Univ. Erlangen-Nuernberg,     Germany     (CCSD(R12))
  Christian B. Nielsen,     University of Copenhagen,     Denmark     (QM/MM)
  Patrick Norman,           KTH Stockholm,                Sweden      (Cubic response and complex frequency response in RESPONS)
  Jeppe Olsen,              Aarhus University,            Denmark     (SIRIUS CI/density modules)
  Jogvan Magnus H. Olsen,   Aarhus University,            Denmark     (Polarizable embedding and polarizable density embedding)
  Anders Osted,             Copenhagen University,        Denmark     (QM/MM)
  Martin J. Packer,         University of Sheffield,      UK          (SOPPA)
  Filip Pawlowski,          Kazimierz Wielki University,  Poland      (CC3)
  Morten N. Pedersen,       Univ. of Southern Denmark,    Denmark     (Polarizable embedding)
  Thomas B. Pedersen,       University of Oslo,           Norway      (Cholesky decomposition)
  Patricio F. Provasi,      University of Northeastern,   Argentina   (Analysis of coupling constants in localized orbitals)
  Peter Reinholdt,          Univ. of Southern Denmark,    Denmark     (Polarizable embedding and polarizable density embedding)
  Zilvinas Rinkevicius,     KTH Stockholm,                Sweden      (open-shell DFT, ESR)
  Elias Rudberg,            KTH Stockholm,                Sweden      (DFT grid and basis info)
  Torgeir A. Ruden,         University of Oslo,           Norway      (Numerical derivatives in ABACUS)
  Kenneth Ruud,             UiT The Arctic U. of Norway,  Norway      (DALTON; ABACUS magnetic properties and much more)
  Pawel Salek,              KTH Stockholm,                Sweden      (DALTON; DFT code)
  Claire C. M. Samson       University of Karlsruhe       Germany     (Boys localization, r12 integrals in ERI)
  Alfredo Sanchez de Meras, University of Valencia,       Spain       (CC module, Cholesky decomposition)
  Trond Saue,               Paul Sabatier University,     France      (direct Fock matrix construction)
  Stephan P. A. Sauer,      University of Copenhagen,     Denmark     (SOPPA(CCSD), SOPPA prop., AOSOPPA, vibrational g-factors)
  Bernd Schimmelpfennig,    Forschungszentrum Karlsruhe,  Germany     (AMFI module)
  Anna K. Schnack-Petersen, University of Copenhagen,     Denmark     (RPA(D) and HRPA(D) properties in AOSOPPA)
  Kristian Sneskov,         Aarhus University,            Denmark     (Polarizable embedding, QM/MM)
  Arnfinn H. Steindal,      UiT The Arctic U. of Norway,  Norway      (parallel QM/MM, polarizable embedding)
  Casper Steinmann,         Aalborg University,           Denmark     (QFIT, polarizable embedding)
  K. O. Sylvester-Hvid,     University of Copenhagen,     Denmark     (MC-SCRF)
  Peter R. Taylor,          VLSCI/Univ. of Melbourne,     Australia   (Symmetry handling ABACUS, integral transformation)
  Andrew M. Teale,          University of Nottingham,     England     (DFT-AC, DFT-D)
  David P. Tew,             University of Bristol,        England     (CCSD(R12))
  Julien Toulouse,          Sorbonne Univ.,               France      (MC-srDFT)
  Olav Vahtras,             KTH Stockholm,                Sweden      (Triplet response, spin-orbit, ESR, TDDFT, open-shell DFT)
  Lucas Visscher,           Vrije Universiteit Amsterdam, Netherlands (Frozen density embedding)
  David J. Wilson,          La Trobe University,          Australia   (DFT Hessian and DFT magnetizabilities)
  Hans Agren,               KTH Stockholm,                Sweden      (SIRIUS module, RESPONS, MC-SCRF solvation)
 --------------------------------------------------------------------------------

     Date and time (Linux)  : Tue May 27 14:14:16 2025
     Host name              : xm033                                   

 * Work memory size             :   131072000 = 1000.00 megabytes.

 * Directories for basis set searches:
   1) /gpfs/projects/rjh/adrian/summer2025/beta_projects/raw_data/NLO/dalton/hf/n14/dipole
   2) /gpfs/projects/rjh/adrian/dalton/build/basis


Compilation information
-----------------------

 Who compiled             | ahurtado
 Host                     | milan2
 System                   | Linux-5.14.0-427.42.1.el9_4.x86_64
 CMake generator          | Unix Makefiles
 Processor                | x86_64
 64-bit integers          | OFF
 MPI                      | ON
 Fortran compiler         | /gpfs/software/openmpi/milan/gcc13.2/4.1.6/bin/mpi
                          | f90
 Fortran compiler version | GNU Fortran (GCC) 13.2.0
 C compiler               | /gpfs/software/openmpi/milan/gcc13.2/4.1.6/bin/mpi
                          | cc
 C compiler version       | gcc (GCC) 13.2.0
 C++ compiler             | /gpfs/software/openmpi/milan/gcc13.2/4.1.6/bin/mpi
                          | cxx
 C++ compiler version     | unknown
 BLAS                     | /gpfs/software/intel/oneAPI/2024_2/mkl/2024.2/lib/
                          | intel64/libmkl_gf_lp64.so;/gpfs/software/intel/one
                          | API/2024_2/mkl/2024.2/lib/intel64/libmkl_sequentia
                          | l.so;/gpfs/software/intel/oneAPI/2024_2/mkl/2024.2
                          | /lib/intel64/libmkl_core.so;/usr/lib64/libpthread.
                          | a;/usr/lib64/libm.so
 LAPACK                   | /gpfs/software/intel/oneAPI/2024_2/mkl/2024.2/lib/
                          | intel64/libmkl_lapack95_lp64.a;/gpfs/software/inte
                          | l/oneAPI/2024_2/mkl/2024.2/lib/intel64/libmkl_gf_l
                          | p64.so
 Static linking           | OFF
 Last Git revision        | 66052b3af5ea7225e31178bf9a8b031913c72190
 Git branch               | (HEAD detached at Dalton2020.0)
 Configuration time       | 2025-04-10 16:02:31.569498

 * MPI parallel run using 576 processes.


   Content of the .dal input file
 ----------------------------------

**DALTON INPUT
.RUN RESPONSE
.DIRECT
**WAVE FUNCTIONS
.HF
**PROPERTIES
**RESPONSE
*QUADRA
.DIPLEN
.FREQUENCIES
2
0.0 0.0154
**END OF DALTON INPUT


   Content of the .mol file
 ----------------------------

BASIS
aug-cc-pVDZ
blah
blah
Atomtype=4 Angstrom Charge=0 Nosymmetry
Charge=6 Atoms=28
C_a -0.28844299851542915 -0.8333669989446016 0.0
C_b 0.0 0.513405999382555 0.0
C_c -0.9964850009912315 1.5483060008450387 0.0
C_d -0.7046519980123525 2.8944489978275767 0.0
C_e -1.6978069979440518 3.9325589988335286 0.0
C_f -1.401586999469732 5.277698998622735 0.0
C_g -2.3903829973804354 6.3202269996169 0.0
C_h -2.0880589979905304 7.663780002243079 0.0
C_i -3.0707240016561324 8.712722001454614 0.0
C_j -2.7595039988858816 10.053717998631747 0.0
C_k -3.7329849997660025 11.112427000453527 0.0
C_l -3.4078599979347723 12.449051999162299 0.0
C_m -4.3658840023716 13.523947997389493 0.0
C_n -4.015104002524055 14.851942999518178 0.0
C_o -4.941639999678566 15.956107000793486 0.0
C_p -4.523213001529069 17.260270999374455 0.0
C_q 2.6190920013877177 -10.334388997912924 0.0
C_r 2.887902001501851 -8.98713899924807 0.0
C_s 1.8750640012142197 -7.964548998524114 0.0
C_t 2.1522499981390895 -6.6171670018958295 0.0
C_u 1.1458680021558094 -5.590125001547874 0.0
C_v 1.4278950021640144 -4.242783000133173 0.0
C_w 0.42550699763712635 -3.212855999717453 0.0
C_x 0.7109210016739967 -1.865706999815027 0.0
C_y 4.207937998461808 -15.01867000072512 0.0
C_z 4.443043998222679 -13.686408999470215 0.0
C_{ 3.3893969997627242 -12.6951819984961 0.0
C_| 3.643770997943831 -11.348766999135504 0.0
Charge=7 Atoms=2
N_a -5.328309999186019 18.367441002378516 0.0
N_b 5.307200998541634 -15.977827000028855 0.0
Charge=8 Atoms=2
O_a 4.974188001831576 -17.169057998888345 0.0
O_b 6.465698000042107 -15.55607800197925 0.0
Charge=1 Atoms=30
H_a -1.343432000965187 -1.144647999971926 0.0
H_b 1.0555990008958134 0.8233510025814174 0.0
H_c -2.0523080026003218 1.2397869979346297 0.0
H_d 0.3518830009501499 3.2013559999517542 0.0
H_e -2.7546190000092516 3.627419998937288 0.0
H_f -0.3438389993378436 5.580639002620036 0.0
H_g -3.44849799778324 6.019652999846225 0.0
H_h -1.0286230019331861 7.961137001455789 0.0
H_i -4.130647999645384 8.418664998953592 0.0
H_j -1.6975959991148413 10.342746997406726 0.0
H_k -4.7955350026208 10.82825500178896 0.0
H_l -2.3419689977180056 12.724278997928584 0.0
H_m -5.432631999789275 13.256996001963287 0.0
H_n -2.9421349978177433 15.099758999779349 0.0
H_o -6.017821999071359 15.735296998551014 0.0
H_p -3.4484359993812377 17.4811800000895 0.0
H_q -6.334902999290283 18.275814000101636 0.0
H_r -4.935636997525409 19.29587299914468 0.0
H_s 1.5708300001836668 -10.66592399738181 0.0
H_t 3.9385489991026192 -8.661134002174357 0.0
H_u 0.8236899987943447 -8.286960998756365 0.0
H_v 3.2049430012154203 -6.297746001218411 0.0
H_w 0.0927920017814842 -5.907411999871368 0.0
H_x 2.481794000103462 -3.92730299910627 0.0
H_y -0.6286399992021018 -3.5268299994451935 0.0
H_z 1.7657010002926283 -1.5531029975515345 0.0
H_{ 3.22804199921939 -15.49986499916951 0.0
H_| 5.4877840022916216 -13.352874001192463 0.0
H_} 2.347492999243608 -13.04321000167601 0.0
H_~ 4.690929998045277 -11.012431002380412 0.0


       *******************************************************************
       *********** Output from DALTON general input processing ***********
       *******************************************************************

 --------------------------------------------------------------------------------
   Overall default print level:    0
   Print level for DALTON.STAT:    1

    Parallel calculation using MPI
    AO-direct calculation (in sections where implemented)
    HERMIT 1- and 2-electron integral sections will be executed
    "Old" integral transformation used (limited to max 255 basis functions)
    Wave function sections will be executed (SIRIUS module)
    Dynamic molecular response properties section will be executed (RESPONSE module)
 --------------------------------------------------------------------------------


   ****************************************************************************
   *************** Output of molecule and basis set information ***************
   ****************************************************************************


    The two title cards from your ".mol" input:
    ------------------------------------------------------------------------
 1: blah                                                                    
 2: blah                                                                    
    ------------------------------------------------------------------------

  Coordinates are entered in Angstrom and converted to atomic units.
          - Conversion factor : 1 bohr = 0.52917721 A

  Atomic type no.    1
  --------------------
  Nuclear charge:   6.00000
  Number of symmetry independent centers:   28
  Number of basis sets to read;    2
  Basis set file used for this atomic type with Z =   6 :
     "/gpfs/projects/rjh/adrian/dalton/build/basis/aug-cc-pVDZ"

  Atomic type no.    2
  --------------------
  Nuclear charge:   7.00000
  Number of symmetry independent centers:    2
  Number of basis sets to read;    2
  Basis set file used for this atomic type with Z =   7 :
     "/gpfs/projects/rjh/adrian/dalton/build/basis/aug-cc-pVDZ"

  Atomic type no.    3
  --------------------
  Nuclear charge:   8.00000
  Number of symmetry independent centers:    2
  Number of basis sets to read;    2
  Basis set file used for this atomic type with Z =   8 :
     "/gpfs/projects/rjh/adrian/dalton/build/basis/aug-cc-pVDZ"

  Atomic type no.    4
  --------------------
  Nuclear charge:   1.00000
  Number of symmetry independent centers:   30
  Number of basis sets to read;    2
  Basis set file used for this atomic type with Z =   1 :
     "/gpfs/projects/rjh/adrian/dalton/build/basis/aug-cc-pVDZ"


                         SYMGRP: Point group information
                         -------------------------------

@    Point group: C1 


                                 Isotopic Masses
                                 ---------------

                           C_a        12.000000
                           C_b        12.000000
                           C_c        12.000000
                           C_d        12.000000
                           C_e        12.000000
                           C_f        12.000000
                           C_g        12.000000
                           C_h        12.000000
                           C_i        12.000000
                           C_j        12.000000
                           C_k        12.000000
                           C_l        12.000000
                           C_m        12.000000
                           C_n        12.000000
                           C_o        12.000000
                           C_p        12.000000
                           C_q        12.000000
                           C_r        12.000000
                           C_s        12.000000
                           C_t        12.000000
                           C_u        12.000000
                           C_v        12.000000
                           C_w        12.000000
                           C_x        12.000000
                           C_y        12.000000
                           C_z        12.000000
                           C_{        12.000000
                           C_|        12.000000
                           N_a        14.003074
                           N_b        14.003074
                           O_a        15.994915
                           O_b        15.994915
                           H_a         1.007825
                           H_b         1.007825
                           H_c         1.007825
                           H_d         1.007825
                           H_e         1.007825
                           H_f         1.007825
                           H_g         1.007825
                           H_h         1.007825
                           H_i         1.007825
                           H_j         1.007825
                           H_k         1.007825
                           H_l         1.007825
                           H_m         1.007825
                           H_n         1.007825
                           H_o         1.007825
                           H_p         1.007825
                           H_q         1.007825
                           H_r         1.007825
                           H_s         1.007825
                           H_t         1.007825
                           H_u         1.007825
                           H_v         1.007825
                           H_w         1.007825
                           H_x         1.007825
                           H_y         1.007825
                           H_z         1.007825
                           H_{         1.007825
                           H_|         1.007825
                           H_}         1.007825
                           H_~         1.007825

                       Total mass:   426.230728 amu
                       Natural abundance:  72.150 %

 Center-of-mass coordinates (a.u.):    0.099320   -0.294099    0.000000
 Center-of-mass coordinates (Angs):    0.052558   -0.155630    0.000000


  Atoms and basis sets
  --------------------

  Number of atom types :    4
  Total number of atoms:   62

  Basis set used is "aug-cc-pVDZ" from the basis set library.

  label    atoms   charge   prim   cont     basis
  ----------------------------------------------------------------------
  C_         28    6.0000    35    23      [10s5p2d|4s3p2d]                                   
  N_          2    7.0000    35    23      [10s5p2d|4s3p2d]                                   
  O_          2    8.0000    35    23      [10s5p2d|4s3p2d]                                   
  H_         30    1.0000    11     9      [5s2p|3s2p]                                        
  ----------------------------------------------------------------------
  total:     62  228.0000  1450  1006
  ----------------------------------------------------------------------
  Spherical harmonic basis used.

  Threshold for neglecting AO integrals:  1.00D-12

  Max    interatomic separation is   37.7875 Angstrom (   71.4080 Bohr)
  between atoms   50 and   31, "H_r   " and "O_a   ".

  Min HX interatomic separation is    1.0081 Angstrom (    1.9050 Bohr)

  Min YX interatomic separation is    1.2329 Angstrom (    2.3298 Bohr)


  Bond distances (Angstrom):
  --------------------------

                  atom 1     atom 2       distance
                  ------     ------       --------
  bond distance:  C_b        C_a          1.377315
  bond distance:  C_c        C_b          1.436663
  bond distance:  C_d        C_c          1.377413
  bond distance:  C_e        C_d          1.436673
  bond distance:  C_f        C_e          1.377370
  bond distance:  C_g        C_f          1.436865
  bond distance:  C_h        C_g          1.377147
  bond distance:  C_i        C_h          1.437327
  bond distance:  C_j        C_i          1.376637
  bond distance:  C_k        C_j          1.438239
  bond distance:  C_l        C_k          1.375599
  bond distance:  C_m        C_l          1.439865
  bond distance:  C_n        C_m          1.373542
  bond distance:  C_o        C_n          1.441405
  bond distance:  C_p        C_o          1.369644
  bond distance:  C_r        C_q          1.373805
  bond distance:  C_s        C_r          1.439281
  bond distance:  C_t        C_s          1.375598
  bond distance:  C_u        C_t          1.437922
  bond distance:  C_v        C_u          1.376543
  bond distance:  C_w        C_v          1.437196
  bond distance:  C_x        C_a          1.436821
  bond distance:  C_x        C_w          1.377052
  bond distance:  C_z        C_y          1.352847
  bond distance:  C_{        C_z          1.446618
  bond distance:  C_|        C_q          1.441849
  bond distance:  C_|        C_{          1.370233
  bond distance:  N_a        C_p          1.368944
  bond distance:  N_b        C_y          1.458890
  bond distance:  O_a        N_b          1.236903
  bond distance:  O_b        N_b          1.232878
  bond distance:  H_a        C_a          1.099953
  bond distance:  H_b        C_b          1.100161
  bond distance:  H_c        C_c          1.099976
  bond distance:  H_d        C_d          1.100208
  bond distance:  H_e        C_e          1.099982
  bond distance:  H_f        C_f          1.100274
  bond distance:  H_g        C_g          1.099978
  bond distance:  H_h        C_h          1.100375
  bond distance:  H_i        C_i          1.099958
  bond distance:  H_j        C_j          1.100539
  bond distance:  H_k        C_k          1.099894
  bond distance:  H_l        C_l          1.100851
  bond distance:  H_m        C_m          1.099643
  bond distance:  H_n        C_n          1.101215
  bond distance:  H_o        C_o          1.098601
  bond distance:  H_p        C_p          1.097245
  bond distance:  H_q        N_a          1.010755
  bond distance:  H_r        N_a          1.008057
  bond distance:  H_s        C_q          1.099440
  bond distance:  H_t        C_r          1.100063
  bond distance:  H_u        C_s          1.099698
  bond distance:  H_v        C_t          1.100087
  bond distance:  H_w        C_u          1.099836
  bond distance:  H_x        C_v          1.100105
  bond distance:  H_y        C_w          1.099912
  bond distance:  H_z        C_x          1.100128
  bond distance:  H_{        C_y          1.091671
  bond distance:  H_|        C_z          1.096689
  bond distance:  H_}        C_{          1.098493
  bond distance:  H_~        C_|          1.099847


  Bond angles (degrees):
  ----------------------

                  atom 1     atom 2     atom 3         angle
                  ------     ------     ------         -----
  bond angle:     C_b        C_a        C_x          123.841
  bond angle:     C_b        C_a        H_a          118.528
  bond angle:     C_x        C_a        H_a          117.631
  bond angle:     C_a        C_b        C_c          123.995
  bond angle:     C_a        C_b        H_b          118.452
  bond angle:     C_c        C_b        H_b          117.553
  bond angle:     C_b        C_c        C_d          123.851
  bond angle:     C_b        C_c        H_c          117.628
  bond angle:     C_d        C_c        H_c          118.521
  bond angle:     C_c        C_d        C_e          124.036
  bond angle:     C_c        C_d        H_d          118.430
  bond angle:     C_e        C_d        H_d          117.534
  bond angle:     C_d        C_e        C_f          123.849
  bond angle:     C_d        C_e        H_e          117.627
  bond angle:     C_f        C_e        H_e          118.524
  bond angle:     C_e        C_f        C_g          124.096
  bond angle:     C_e        C_f        H_f          118.401
  bond angle:     C_g        C_f        H_f          117.503
  bond angle:     C_f        C_g        C_h          123.834
  bond angle:     C_f        C_g        H_g          117.627
  bond angle:     C_h        C_g        H_g          118.539
  bond angle:     C_g        C_h        C_i          124.187
  bond angle:     C_g        C_h        H_h          118.359
  bond angle:     C_i        C_h        H_h          117.453
  bond angle:     C_h        C_i        C_j          123.803
  bond angle:     C_h        C_i        H_i          117.626
  bond angle:     C_j        C_i        H_i          118.572
  bond angle:     C_i        C_j        C_k          124.336
  bond angle:     C_i        C_j        H_j          118.292
  bond angle:     C_k        C_j        H_j          117.373
  bond angle:     C_j        C_k        C_l          123.730
  bond angle:     C_j        C_k        H_k          117.626
  bond angle:     C_l        C_k        H_k          118.644
  bond angle:     C_k        C_l        C_m          124.619
  bond angle:     C_k        C_l        H_l          118.150
  bond angle:     C_m        C_l        H_l          117.231
  bond angle:     C_l        C_m        C_n          123.494
  bond angle:     C_l        C_m        H_m          117.660
  bond angle:     C_n        C_m        H_m          118.846
  bond angle:     C_m        C_n        C_o          125.203
  bond angle:     C_m        C_n        H_n          117.801
  bond angle:     C_o        C_n        H_n          116.996
  bond angle:     C_n        C_o        C_p          122.211
  bond angle:     C_n        C_o        H_o          118.406
  bond angle:     C_p        C_o        H_o          119.383
  bond angle:     C_o        C_p        N_a          126.188
  bond angle:     C_o        C_p        H_p          119.403
  bond angle:     N_a        C_p        H_p          114.409
  bond angle:     C_r        C_q        C_|          123.427
  bond angle:     C_r        C_q        H_s          118.834
  bond angle:     C_|        C_q        H_s          117.739
  bond angle:     C_q        C_r        C_s          123.991
  bond angle:     C_q        C_r        H_t          118.522
  bond angle:     C_s        C_r        H_t          117.487
  bond angle:     C_r        C_s        C_t          123.650
  bond angle:     C_r        C_s        H_u          117.677
  bond angle:     C_t        C_s        H_u          118.673
  bond angle:     C_s        C_t        C_u          123.957
  bond angle:     C_s        C_t        H_v          118.504
  bond angle:     C_u        C_t        H_v          117.538
  bond angle:     C_t        C_u        C_v          123.760
  bond angle:     C_t        C_u        H_w          117.651
  bond angle:     C_v        C_u        H_w          118.590
  bond angle:     C_u        C_v        C_w          123.954
  bond angle:     C_u        C_v        H_x          118.487
  bond angle:     C_w        C_v        H_x          117.559
  bond angle:     C_v        C_w        C_x          123.814
  bond angle:     C_v        C_w        H_y          117.638
  bond angle:     C_x        C_w        H_y          118.548
  bond angle:     C_a        C_x        C_w          123.968
  bond angle:     C_a        C_x        H_z          117.562
  bond angle:     C_w        C_x        H_z          118.470
  bond angle:     C_z        C_y        N_b          121.098
  bond angle:     C_z        C_y        H_{          126.162
  bond angle:     N_b        C_y        H_{          112.740
  bond angle:     C_y        C_z        C_{          123.244
  bond angle:     C_y        C_z        H_|          117.714
  bond angle:     C_{        C_z        H_|          119.043
  bond angle:     C_z        C_{        C_|          122.553
  bond angle:     C_z        C_{        H_}          118.278
  bond angle:     C_|        C_{        H_}          119.170
  bond angle:     C_q        C_|        C_{          124.012
  bond angle:     C_q        C_|        H_~          117.483
  bond angle:     C_{        C_|        H_~          118.505
  bond angle:     C_p        N_a        H_q          120.822
  bond angle:     C_p        N_a        H_r          121.051
  bond angle:     H_q        N_a        H_r          118.127
  bond angle:     C_y        N_b        O_a          115.488
  bond angle:     C_y        N_b        O_b          118.890
  bond angle:     O_a        N_b        O_b          125.622




 Principal moments of inertia (u*A**2) and principal axes
 --------------------------------------------------------

   IA     156.113231         -0.291173    0.956670    0.000000
   IB   56541.396409          0.956670    0.291173    0.000000
   IC   56697.509640          0.000000    0.000000    1.000000


 Rotational constants
 --------------------

@    The molecule is planar.

               A                   B                   C

           3237.2593              8.9382              8.9136 MHz
            0.107983            0.000298            0.000297 cm-1


@  Nuclear repulsion energy : 2066.436409399690 Hartree


                     .---------------------------------------.
                     | Starting in Integral Section (HERMIT) |
                     `---------------------------------------'



 ***************************************************************************************
 ****************** Output from **INTEGRALS input processing (HERMIT) ******************
 ***************************************************************************************


 - Using defaults, no **INTEGRALS input found

 Default print level:        1

 Calculation of one-electron Hamiltonian integrals.

 Center of mass  (bohr):      0.099320351442     -0.294098929890      0.000000000000
 Operator center (bohr):      0.000000000000      0.000000000000      0.000000000000
 Gauge origin    (bohr):      0.000000000000      0.000000000000      0.000000000000
 Dipole origin   (bohr):      0.000000000000      0.000000000000      0.000000000000


     ************************************************************************
     ************************** Output from HERINT **************************
     ************************************************************************



                      Nuclear contribution to dipole moments
                      --------------------------------------

                 au               Debye          C m (/(10**-30)

      x     -0.00000557        -0.00001416        -0.00004722
      y      0.00000189         0.00000480         0.00001602
      z      0.00000000         0.00000000         0.00000000


  Time used in ONEDRV     is       2.47 seconds
  Time used in HUCKEL     is       0.58 seconds
  Time used in OVERLAP    is       0.26 seconds
  Time used in POPOVLP    is       0.51 seconds
  Time used in R2         is       0.32 seconds
  Time used in R4         is       0.37 seconds
  Time used in DIPLEN     is       0.34 seconds
  Time used in QUADRUP    is       0.65 seconds
  Time used in KINENE     is       0.46 seconds
  Time used in GABGEN     is       1.65 seconds
  Total CPU  time used in HERMIT:   7.62 seconds
  Total wall time used in HERMIT:   7.69 seconds


                        .----------------------------------.
                        | End of Integral Section (HERMIT) |
                        `----------------------------------'



                   .--------------------------------------------.
                   | Starting in Wave Function Section (SIRIUS) |
                   `--------------------------------------------'



@ Primary orbitals are deleted during canonical orthonormalization
@   because of detected numerical linear dependence or too large coefficients.
@ Eigenvalue threshold for num. lin. dep. =  1.00D-06

@   2 MO components are deleted in symmetry    1
 Overlap eigenvalues of the deleted orbitals:
  4.42D-07  1.11D-07

 Max MO coeff. of last deleted MO & limit:  4.11D+02  1.00D+03

WARNING: Orbitals have been deleted because of numerical
   linear dependence although not requested in input.

 *** Output from Huckel module :

     Using EWMO model:          T
     Using EHT  model:          F
     Number of Huckel orbitals each symmetry:  190

 EWMO - Energy Weighted Maximum Overlap - is a Huckel type method,
        which normally is better than Extended Huckel Theory.
 Reference: Linderberg and Ohrn, Propagators in Quantum Chemistry (Wiley, 1973)

 Huckel EWMO eigenvalues for symmetry :  1
          -20.684753     -20.683498     -15.677080     -15.674960     -11.359406
          -11.359388     -11.359195     -11.359128     -11.358947     -11.358817
          -11.358585     -11.357863     -11.356901     -11.355762     -11.354513
          -11.353227     -11.351984     -11.350907     -11.348641     -11.347949
          -11.347222     -11.346587     -11.346078     -11.345705     -11.345494
          -11.345479     -11.345405     -11.345374     -11.345272     -11.345267
          -11.345185     -11.345181      -1.964050      -1.792888      -1.790497
           -1.784612      -1.772821      -1.752825      -1.722704      -1.681420
           -1.629056      -1.566796      -1.497096      -1.446466      -1.415689
           -1.337896      -1.257016      -1.212071      -1.194734      -1.176047
           -1.165786      -1.128079      -1.099471      -1.081406      -1.038259
           -1.013446      -0.985710      -0.944104      -0.932695      -0.882137
           -0.879525      -0.852027      -0.836630      -0.827596      -0.811190
           -0.784661      -0.770871      -0.749402      -0.749099      -0.739617
           -0.721710      -0.696292      -0.689310      -0.675369      -0.665207
           -0.653657      -0.644933      -0.624632      -0.616108      -0.611003
           -0.594762      -0.586055      -0.576994      -0.571834      -0.558907
           -0.540404      -0.539149      -0.538046      -0.522327      -0.515940
           -0.501952      -0.501428      -0.497126      -0.494654      -0.493104
           -0.489649      -0.487983      -0.483857      -0.482895      -0.478115
           -0.477885      -0.474366      -0.474229      -0.466493      -0.464847
           -0.436900      -0.433408      -0.410904      -0.403187      -0.389045
           -0.376158      -0.372526      -0.362199      -0.352624      -0.335966
           -0.307182      -0.288253      -0.271087      -0.255993      -0.242942
           -0.231828      -0.229151      -0.222511      -0.214829      -0.208612
           -0.203692      -0.200885      -0.199908      -0.197120      -0.195212
           -0.194101      -0.190600      -0.166732      -0.142708      -0.139031
           -0.135586      -0.133284      -0.131890      -0.131595      -0.131098
           -0.130468      -0.130219      -0.129870      -0.129786      -0.129301
           -0.129117      -0.129014      -0.128246      -0.128020      -0.127441
           -0.127026      -0.127006      -0.126505      -0.126190      -0.125967
           -0.125517      -0.125036      -0.124512      -0.124283      -0.123800
           -0.123613      -0.123193      -0.112844      -0.112230      -0.109492
           -0.108476      -0.105255      -0.104279      -0.101332      -0.100014
           -0.097422      -0.096028      -0.094258      -0.092742      -0.091519
           -0.090281      -0.089118      -0.088421      -0.087208      -0.086918
           -0.085847      -0.085677      -0.085017      -0.084548      -0.083457
           -0.082389      -0.081352      -0.080414      -0.079691      -0.079331

 **********************************************************************
 *SIRIUS* a direct, restricted step, second order MCSCF program       *
 **********************************************************************

 
     Date and time (Linux)  : Tue May 27 14:15:23 2025
     Host name              : xm033                                   

 Title lines from ".mol" input file:
     blah                                                                    
     blah                                                                    

 Print level on unit LUPRI =   2 is   0
 Print level on unit LUW4  =   2 is   5

@    Restricted, closed shell Hartree-Fock calculation.

@    Time-dependent Hartree-Fock calculation (random phase approximation).
 Fock matrices are calculated directly and in parallel without use of integrals on disk.

 Initial molecular orbitals are obtained according to
 ".MOSTART EWMO  " input option

     Wave function specification
     ============================
@    Wave function type        --- HF ---
@    Number of closed shell electrons         228
@    Number of electrons in active shells       0
@    Total charge of the molecule               0

@    Spin multiplicity and 2 M_S                1         0
@    Total number of symmetries                 1 (point group: C1 )
@    Reference state symmetry                   1 (irrep name : A  )

     Orbital specifications
     ======================
@    Abelian symmetry species          All |    1
@                                          |  A  
                                       --- |  ---
@    Occupied SCF orbitals             114 |  114
@    Secondary orbitals                890 |  890
@    Total number of orbitals         1004 | 1004
@    Number of basis functions        1006 | 1006

     Optimization information
     ========================
@    Number of configurations                 1
@    Number of orbital rotations         101460
     ------------------------------------------
@    Total number of variables           101461

     Maximum number of Fock   iterations      0
     Maximum number of DIIS   iterations     60
     Maximum number of QC-SCF iterations     60
     Threshold for SCF convergence     1.00D-05

    INFORMATION: Switched to "new" integral transformation (from 1988 ;-) )
    because more than 255 basis functions.


 ***********************************************
 ***** DIIS acceleration of SCF iterations *****
 ***********************************************

 C1-DIIS algorithm; max error vectors =    8

 Iter      Total energy        Error norm    Delta(E)  DIIS dim.
 -----------------------------------------------------------------------------
   1  Screening settings (-IFTHRS, JTDIIS, DIFDEN, times)  -10    1    T  9.30D+00  9.38D+00
@  1    -1331.42860922        8.03830D+00   -1.33D+03    1
      Virial theorem: -V/T =      2.013112
@    MULPOP   C_a     0.26; C_b     0.31; C_c     0.25; C_d     0.30; C_e     0.24; C_f     0.29; C_g     0.23; C_h     0.29; C_i     0.22; C_j     0.31; 
@             C_k     0.19; C_l     0.37; C_m     0.18; C_n     0.30; C_o    -0.18; C_p     0.82; C_q     0.26; C_r     0.30; C_s     0.28; C_t     0.31; 
@             C_u     0.25; C_v     0.30; C_w     0.25; C_x     0.30; C_y     0.75; C_z     0.06; C_{     0.22; C_|     0.38; N_a    -0.24; N_b     0.96; 
@    MULPOP    dipole moment & components:     37.8081;      -12.6341     35.6347      0.0000
   1  Level shift: doubly occupied orbital energies shifted by -2.00D-01
 -----------------------------------------------------------------------------
   2  Screening settings (-IFTHRS, JTDIIS, DIFDEN, times)  -10    2    T  5.25D+00  5.27D+00
@  2    -1335.62646709        2.94416D+00   -4.20D+00    2
      Virial theorem: -V/T =      2.000850
@    MULPOP   C_a     0.60; C_b     0.58; C_c     0.63; C_d     0.56; C_e     0.66; C_f     0.58; C_g     0.61; C_h     0.58; C_i     0.65; C_j     0.57; 
@             C_k     0.68; C_l     0.56; C_m     0.84; C_n     0.36; C_o     0.70; C_p     0.68; C_q     0.67; C_r     0.58; C_s     0.62; C_t     0.58; 
@             C_u     0.66; C_v     0.55; C_w     0.63; C_x     0.61; C_y     0.73; C_z     0.49; C_{     0.72; C_|     0.55; N_a    -0.17; N_b     0.32; 
@    MULPOP    dipole moment & components:     14.6433;       -6.2040     13.2642      0.0000
   2  Level shift: doubly occupied orbital energies shifted by -1.00D-01
 -----------------------------------------------------------------------------
   3  Screening settings (-IFTHRS, JTDIIS, DIFDEN, times)  -10    3    T  5.04D+00  5.06D+00
@  3    -1336.13667907        1.05690D+00   -5.10D-01    3
      Virial theorem: -V/T =      2.001359
@    MULPOP   C_a     0.65; C_b     0.60; C_c     0.68; C_d     0.58; C_e     0.69; C_f     0.59; C_g     0.65; C_h     0.59; C_i     0.69; C_j     0.59; 
@             C_k     0.72; C_l     0.58; C_m     0.80; C_n     0.38; C_o     0.75; C_p     0.89; C_q     0.73; C_r     0.62; C_s     0.68; C_t     0.60; 
@             C_u     0.70; C_v     0.57; C_w     0.67; C_x     0.62; C_y     1.27; C_z     0.57; C_{     0.72; C_|     0.53; N_a    -0.30; N_b     0.80; 
@    MULPOP    dipole moment & components:     12.7829;       -6.2269     11.1637      0.0000
   3  Level shift: doubly occupied orbital energies shifted by -5.00D-02
 -----------------------------------------------------------------------------
   4  Screening settings (-IFTHRS, JTDIIS, DIFDEN, times)  -10    4    T  4.91D+00  4.93D+00
@  4    -1336.21658865        3.23639D-01   -7.99D-02    4
      Virial theorem: -V/T =      2.002708
@    MULPOP   C_a     0.66; C_b     0.59; C_c     0.69; C_d     0.56; C_e     0.71; C_f     0.57; C_g     0.66; C_h     0.57; C_i     0.70; C_j     0.57; 
@             C_k     0.74; C_l     0.57; C_m     0.83; C_n     0.35; C_o     0.76; C_p     0.91; C_q     0.75; C_r     0.64; C_s     0.69; C_t     0.59; 
@             C_u     0.72; C_v     0.56; C_w     0.68; C_x     0.61; C_y     1.21; C_z     0.55; C_{     0.73; C_|     0.53; N_a    -0.32; N_b     0.56; 
@    MULPOP    dipole moment & components:     11.7847;       -6.1351     10.0618      0.0000
   4  Level shift: doubly occupied orbital energies shifted by -2.50D-02
 -----------------------------------------------------------------------------
   5  Screening settings (-IFTHRS, JTDIIS, DIFDEN, times)  -10    5    T  4.82D+00  4.86D+00
@  5    -1336.23363530        1.37241D-01   -1.70D-02    5
      Virial theorem: -V/T =      2.002165
@    MULPOP   C_a     0.65; C_b     0.57; C_c     0.69; C_d     0.54; C_e     0.71; C_f     0.55; C_g     0.66; C_h     0.56; C_i     0.70; C_j     0.55; 
@             C_k     0.74; C_l     0.55; C_m     0.84; C_n     0.33; C_o     0.76; C_p     0.88; C_q     0.77; C_r     0.60; C_s     0.70; C_t     0.56; 
@             C_u     0.72; C_v     0.54; C_w     0.67; C_x     0.60; C_y     1.27; C_z     0.46; C_{     0.76; C_|     0.47; N_a    -0.34; N_b     0.60; 
@    MULPOP    dipole moment & components:     10.7859;       -6.0685      8.9168      0.0000
   5  Level shift: doubly occupied orbital energies shifted by -1.25D-02
 -----------------------------------------------------------------------------
   6  Screening settings (-IFTHRS, JTDIIS, DIFDEN, times)  -10    6    T  4.72D+00  4.74D+00
@  6    -1336.23870317        7.38871D-02   -5.07D-03    6
      Virial theorem: -V/T =      2.002038
@    MULPOP   C_a     0.66; C_b     0.56; C_c     0.69; C_d     0.53; C_e     0.71; C_f     0.54; C_g     0.66; C_h     0.55; C_i     0.70; C_j     0.55; 
@             C_k     0.74; C_l     0.54; C_m     0.84; C_n     0.32; C_o     0.75; C_p     0.88; C_q     0.79; C_r     0.58; C_s     0.71; C_t     0.54; 
@             C_u     0.73; C_v     0.52; C_w     0.68; C_x     0.58; C_y     1.27; C_z     0.44; C_{     0.78; C_|     0.45; N_a    -0.34; N_b     0.57; 
@    MULPOP    dipole moment & components:     10.2574;       -6.0781      8.2626      0.0000
   6  Level shift: doubly occupied orbital energies shifted by -1.25D-02
 -----------------------------------------------------------------------------
   7  Screening settings (-IFTHRS, JTDIIS, DIFDEN, times)  -14    7    F  6.20D+00  6.26D+00
@  7    -1336.24060902        3.46794D-02   -1.91D-03    7
      Virial theorem: -V/T =      2.002054
@    MULPOP   C_a     0.66; C_b     0.56; C_c     0.69; C_d     0.53; C_e     0.71; C_f     0.54; C_g     0.66; C_h     0.55; C_i     0.70; C_j     0.55; 
@             C_k     0.74; C_l     0.54; C_m     0.85; C_n     0.32; C_o     0.75; C_p     0.88; C_q     0.80; C_r     0.56; C_s     0.72; C_t     0.53; 
@             C_u     0.73; C_v     0.51; C_w     0.68; C_x     0.58; C_y     1.29; C_z     0.41; C_{     0.81; C_|     0.43; N_a    -0.35; N_b     0.56; 
@    MULPOP    dipole moment & components:      9.9015;       -6.0133      7.8664      0.0000
 -----------------------------------------------------------------------------
   8  Screening settings (-IFTHRS, JTDIIS, DIFDEN, times)  -14    8    T  5.81D+00  5.84D+00
@  8    -1336.24102489        1.54877D-02   -4.16D-04    8
      Virial theorem: -V/T =      2.002052
@    MULPOP   C_a     0.66; C_b     0.56; C_c     0.69; C_d     0.53; C_e     0.71; C_f     0.54; C_g     0.66; C_h     0.55; C_i     0.69; C_j     0.55; 
@             C_k     0.74; C_l     0.54; C_m     0.84; C_n     0.32; C_o     0.74; C_p     0.88; C_q     0.81; C_r     0.56; C_s     0.72; C_t     0.52; 
@             C_u     0.73; C_v     0.51; C_w     0.68; C_x     0.58; C_y     1.30; C_z     0.39; C_{     0.82; C_|     0.42; N_a    -0.35; N_b     0.57; 
@    MULPOP    dipole moment & components:      9.6288;       -5.9481      7.5719      0.0000
 -----------------------------------------------------------------------------
   9  Screening settings (-IFTHRS, JTDIIS, DIFDEN, times)  -14    9    T  5.63D+00  5.67D+00
@  9    -1336.24108923        6.33551D-03   -6.43D-05    8
      Virial theorem: -V/T =      2.002045
@    MULPOP   C_a     0.65; C_b     0.57; C_c     0.69; C_d     0.54; C_e     0.70; C_f     0.55; C_g     0.65; C_h     0.56; C_i     0.69; C_j     0.55; 
@             C_k     0.73; C_l     0.55; C_m     0.84; C_n     0.33; C_o     0.74; C_p     0.89; C_q     0.81; C_r     0.56; C_s     0.72; C_t     0.52; 
@             C_u     0.73; C_v     0.52; C_w     0.68; C_x     0.58; C_y     1.30; C_z     0.40; C_{     0.82; C_|     0.42; N_a    -0.35; N_b     0.56; 
@    MULPOP    dipole moment & components:      9.4933;       -5.8665      7.4638      0.0000
 -----------------------------------------------------------------------------
  10  Screening settings (-IFTHRS, JTDIIS, DIFDEN, times)  -14   10    T  5.65D+00  5.68D+00
@ 10    -1336.24110737        4.00815D-03   -1.81D-05    8
      Virial theorem: -V/T =      2.002044
@    MULPOP   C_a     0.65; C_b     0.57; C_c     0.68; C_d     0.54; C_e     0.70; C_f     0.55; C_g     0.65; C_h     0.56; C_i     0.68; C_j     0.56; 
@             C_k     0.73; C_l     0.55; C_m     0.83; C_n     0.33; C_o     0.74; C_p     0.89; C_q     0.81; C_r     0.56; C_s     0.72; C_t     0.53; 
@             C_u     0.73; C_v     0.52; C_w     0.68; C_x     0.59; C_y     1.30; C_z     0.40; C_{     0.82; C_|     0.42; N_a    -0.35; N_b     0.56; 
@    MULPOP    dipole moment & components:      9.3932;       -5.7980      7.3901      0.0000
 -----------------------------------------------------------------------------
  11  Screening settings (-IFTHRS, JTDIIS, DIFDEN, times)  -14   11    T  5.44D+00  5.48D+00
@ 11    -1336.24111617        2.48681D-03   -8.80D-06    8
      Virial theorem: -V/T =      2.002045
@    MULPOP   C_a     0.65; C_b     0.57; C_c     0.68; C_d     0.54; C_e     0.70; C_f     0.56; C_g     0.65; C_h     0.56; C_i     0.68; C_j     0.56; 
@             C_k     0.73; C_l     0.56; C_m     0.83; C_n     0.33; C_o     0.74; C_p     0.89; C_q     0.81; C_r     0.56; C_s     0.72; C_t     0.53; 
@             C_u     0.73; C_v     0.52; C_w     0.67; C_x     0.59; C_y     1.30; C_z     0.40; C_{     0.82; C_|     0.42; N_a    -0.35; N_b     0.56; 
@    MULPOP    dipole moment & components:      9.3054;       -5.7370      7.3266      0.0000
 -----------------------------------------------------------------------------
  12  Screening settings (-IFTHRS, JTDIIS, DIFDEN, times)  -14   12    T  5.50D+00  5.53D+00
@ 12    -1336.24112036        9.49638D-04   -4.19D-06    8
      Virial theorem: -V/T =      2.002043
@    MULPOP   C_a     0.64; C_b     0.58; C_c     0.68; C_d     0.55; C_e     0.69; C_f     0.56; C_g     0.64; C_h     0.57; C_i     0.68; C_j     0.56; 
@             C_k     0.72; C_l     0.56; C_m     0.83; C_n     0.34; C_o     0.74; C_p     0.89; C_q     0.80; C_r     0.56; C_s     0.72; C_t     0.53; 
@             C_u     0.73; C_v     0.52; C_w     0.67; C_x     0.59; C_y     1.30; C_z     0.40; C_{     0.82; C_|     0.42; N_a    -0.35; N_b     0.56; 
@    MULPOP    dipole moment & components:      9.2217;       -5.6779      7.2664      0.0000
 -----------------------------------------------------------------------------
  13  Screening settings (-IFTHRS, JTDIIS, DIFDEN, times)  -14   13    T  5.32D+00  5.35D+00
@ 13    -1336.24112086        4.29022D-04   -5.07D-07    8
      Virial theorem: -V/T =      2.002044
@    MULPOP   C_a     0.64; C_b     0.58; C_c     0.68; C_d     0.55; C_e     0.69; C_f     0.56; C_g     0.64; C_h     0.57; C_i     0.68; C_j     0.57; 
@             C_k     0.72; C_l     0.56; C_m     0.83; C_n     0.34; C_o     0.74; C_p     0.89; C_q     0.80; C_r     0.57; C_s     0.72; C_t     0.53; 
@             C_u     0.73; C_v     0.52; C_w     0.67; C_x     0.59; C_y     1.30; C_z     0.40; C_{     0.82; C_|     0.42; N_a    -0.35; N_b     0.56; 
@    MULPOP    dipole moment & components:      9.1922;       -5.6577      7.2447      0.0000
 -----------------------------------------------------------------------------
  14  Screening settings (-IFTHRS, JTDIIS, DIFDEN, times)  -14   14    T  5.21D+00  5.24D+00
@ 14    -1336.24112092        2.04797D-04   -5.57D-08    8
      Virial theorem: -V/T =      2.002044
@    MULPOP   C_a     0.64; C_b     0.58; C_c     0.68; C_d     0.55; C_e     0.69; C_f     0.56; C_g     0.64; C_h     0.57; C_i     0.68; C_j     0.57; 
@             C_k     0.72; C_l     0.56; C_m     0.83; C_n     0.34; C_o     0.74; C_p     0.89; C_q     0.80; C_r     0.57; C_s     0.72; C_t     0.53; 
@             C_u     0.73; C_v     0.53; C_w     0.67; C_x     0.59; C_y     1.30; C_z     0.40; C_{     0.82; C_|     0.42; N_a    -0.35; N_b     0.56; 
@    MULPOP    dipole moment & components:      9.1849;       -5.6526      7.2395      0.0000
 -----------------------------------------------------------------------------
  15  Screening settings (-IFTHRS, JTDIIS, DIFDEN, times)  -14   15    T  5.13D+00  5.16D+00
@ 15    -1336.24112093        9.91972D-05   -1.20D-08    8
      Virial theorem: -V/T =      2.002044
@    MULPOP   C_a     0.64; C_b     0.58; C_c     0.68; C_d     0.55; C_e     0.69; C_f     0.56; C_g     0.64; C_h     0.57; C_i     0.68; C_j     0.57; 
@             C_k     0.72; C_l     0.56; C_m     0.83; C_n     0.34; C_o     0.74; C_p     0.89; C_q     0.80; C_r     0.57; C_s     0.72; C_t     0.53; 
@             C_u     0.73; C_v     0.53; C_w     0.67; C_x     0.59; C_y     1.30; C_z     0.40; C_{     0.82; C_|     0.42; N_a    -0.35; N_b     0.56; 
@    MULPOP    dipole moment & components:      9.1819;       -5.6505      7.2373      0.0000
 -----------------------------------------------------------------------------
  16  Screening settings (-IFTHRS, JTDIIS, DIFDEN, times)  -14   16    T  4.97D+00  5.00D+00
@ 16    -1336.24112093        4.31533D-05   -1.72D-09    8
      Virial theorem: -V/T =      2.002044
@    MULPOP   C_a     0.64; C_b     0.58; C_c     0.68; C_d     0.55; C_e     0.69; C_f     0.56; C_g     0.64; C_h     0.57; C_i     0.68; C_j     0.57; 
@             C_k     0.72; C_l     0.56; C_m     0.83; C_n     0.34; C_o     0.74; C_p     0.89; C_q     0.80; C_r     0.57; C_s     0.72; C_t     0.53; 
@             C_u     0.73; C_v     0.53; C_w     0.67; C_x     0.59; C_y     1.30; C_z     0.40; C_{     0.82; C_|     0.42; N_a    -0.35; N_b     0.56; 
@    MULPOP    dipole moment & components:      9.1814;       -5.6501      7.2370      0.0000
 -----------------------------------------------------------------------------
  17  Screening settings (-IFTHRS, JTDIIS, DIFDEN, times)  -14   17    T  4.91D+00  4.94D+00
@ 17    -1336.24112093        2.98806D-05   -5.83D-10    8
      Virial theorem: -V/T =      2.002044
@    MULPOP   C_a     0.64; C_b     0.58; C_c     0.68; C_d     0.55; C_e     0.69; C_f     0.56; C_g     0.64; C_h     0.57; C_i     0.68; C_j     0.57; 
@             C_k     0.72; C_l     0.56; C_m     0.83; C_n     0.34; C_o     0.74; C_p     0.89; C_q     0.80; C_r     0.57; C_s     0.72; C_t     0.53; 
@             C_u     0.73; C_v     0.53; C_w     0.67; C_x     0.59; C_y     1.30; C_z     0.40; C_{     0.82; C_|     0.42; N_a    -0.35; N_b     0.56; 
@    MULPOP    dipole moment & components:      9.1811;       -5.6499      7.2368      0.0000
 -----------------------------------------------------------------------------
  18  Screening settings (-IFTHRS, JTDIIS, DIFDEN, times)  -14   18    T  4.89D+00  4.92D+00
@ 18    -1336.24112093        1.33071D-05   -2.15D-10    8
      Virial theorem: -V/T =      2.002044
@    MULPOP   C_a     0.64; C_b     0.58; C_c     0.68; C_d     0.55; C_e     0.69; C_f     0.56; C_g     0.64; C_h     0.57; C_i     0.68; C_j     0.57; 
@             C_k     0.72; C_l     0.56; C_m     0.83; C_n     0.34; C_o     0.74; C_p     0.89; C_q     0.80; C_r     0.57; C_s     0.72; C_t     0.53; 
@             C_u     0.73; C_v     0.53; C_w     0.67; C_x     0.59; C_y     1.30; C_z     0.40; C_{     0.82; C_|     0.42; N_a    -0.35; N_b     0.56; 
@    MULPOP    dipole moment & components:      9.1809;       -5.6497      7.2367      0.0000
 -----------------------------------------------------------------------------
  19  Screening settings (-IFTHRS, JTDIIS, DIFDEN, times)  -14   19    T  4.87D+00  4.90D+00
@ 19    -1336.24112093        5.88415D-06   -4.37D-11    8

@ *** DIIS converged in  19 iterations !
@     Converged SCF energy, gradient:  -1336.241120933653    5.88D-06
    - total time used in SIRFCK :              0.00 seconds


 *** SCF orbital energy analysis ***

 Only the 20 lowest virtual orbital energies printed in each symmetry.

 Number of electrons :  228
 Orbital occupations :  114

 Sym       Hartree-Fock orbital energies

1 A     -20.59855405   -20.59571632   -15.84597046   -15.59855215   -11.30701205
        -11.29677419   -11.29525409   -11.28546445   -11.27743607   -11.27163477
        -11.26715525   -11.26700836   -11.26356301   -11.26289105   -11.26057965
        -11.26043157   -11.25802484   -11.25801341   -11.25597552   -11.25572874
        -11.25571002   -11.25365392   -11.25343529   -11.25185899   -11.25110237
        -11.25102815   -11.24859186   -11.24574864   -11.24237186   -11.23822933
        -11.23346911   -11.23110145    -1.58479473    -1.38250847    -1.23827929
         -1.14756077    -1.13338819    -1.12497290    -1.11766078    -1.10972604
         -1.09991132    -1.08791343    -1.07386023    -1.05787989    -1.04007718
         -1.02054821    -0.99940067    -0.97679383    -0.95350721    -0.93831378
         -0.89578375    -0.87030099    -0.84485489    -0.82101558    -0.80141039
         -0.78893866    -0.78463712    -0.77676882    -0.77174306    -0.76800755
         -0.76175116    -0.75915806    -0.74997574    -0.74821130    -0.73741189
         -0.71648593    -0.71474070    -0.69733403    -0.67987821    -0.67682634
         -0.67279244    -0.65916944    -0.65581626    -0.64324051    -0.63435629
         -0.62629856    -0.61456755    -0.60473508    -0.60113590    -0.58476672
         -0.58104749    -0.57121844    -0.56032970    -0.55874228    -0.54877481
         -0.54256171    -0.53963804    -0.53202316    -0.52815032    -0.52561483
         -0.52236647    -0.52027206    -0.51548104    -0.51103200    -0.50659004
         -0.50203091    -0.50040573    -0.49560452    -0.48912662    -0.48190797
         -0.48015851    -0.47869221    -0.46957145    -0.45604738    -0.44051538
         -0.43925221    -0.41980848    -0.39727223    -0.37189246    -0.34384307
         -0.31349577    -0.28166299    -0.25002761    -0.22109441     0.00148975
          0.02193643     0.02736263     0.02972994     0.03022494     0.03087078
          0.03361217     0.03433813     0.03868873     0.03957230     0.04304168
          0.04661755     0.05020382     0.05485753     0.05853936     0.06053370
          0.06399528     0.06844440     0.07406712     0.07975096

    E(LUMO) :     0.00148975 au (symmetry 1)
  - E(HOMO) :    -0.22109441 au (symmetry 1)
  ------------------------------------------
    gap     :     0.22258416 au

 --- Writing SIRIFC interface file

 CPU and wall time for SCF :     263.045     264.654


                       .-----------------------------------.
                       | --- Final results from SIRIUS --- |
                       `-----------------------------------'


@    Spin multiplicity:           1
@    Spatial symmetry:            1 ( irrep  A   in C1  )
@    Total charge of molecule:    0

@    Final HF energy:           -1336.241120933653                 
@    Nuclear repulsion:          2066.436409399690
@    Electronic energy:         -3402.677530333343

@    Final gradient norm:           0.000005884155

 
     Date and time (Linux)  : Tue May 27 14:19:50 2025
     Host name              : xm033                                   

File label for MO orbitals:  27May25   FOCKDIIS

 (Only coefficients > 0.0100 are printed.)

 Molecular orbitals for symmetry species 1  (A  )
 ------------------------------------------------

    Orbital       105      106      107      108      109      110      111
   7 C_a :2pz    0.0276  -0.0439  -0.2114   0.0401  -0.1986  -0.1076   0.1703
  13 C_a :2pz    0.0011  -0.0014  -0.0077   0.0025  -0.0102  -0.0080   0.0191
  15 C_a :3d1-   0.0037  -0.0089  -0.0051  -0.0097  -0.0100   0.0073   0.0144
  30 C_b :2pz    0.0605  -0.1321  -0.1723  -0.0941  -0.1973   0.0445   0.2079
  36 C_b :2pz    0.0014  -0.0038  -0.0051  -0.0047  -0.0117   0.0044   0.0214
  38 C_b :3d1-   0.0008  -0.0031   0.0100  -0.0076   0.0100   0.0113  -0.0097
  53 C_c :2pz    0.0801  -0.1973  -0.0071  -0.2132   0.0014   0.2141  -0.0273
  59 C_c :2pz    0.0020  -0.0050  -0.0003  -0.0091  -0.0007   0.0154  -0.0043
  61 C_c :3d1-   0.0016  -0.0048   0.0096  -0.0058   0.0119   0.0062  -0.0138
  76 C_d :2pz    0.0665  -0.1741   0.1108  -0.1704   0.1373   0.1464  -0.1609
  82 C_d :2pz    0.0019  -0.0046   0.0034  -0.0072   0.0092   0.0102  -0.0155
  84 C_d :3d1-  -0.0033   0.0077   0.0060   0.0111   0.0053  -0.0143  -0.0022
  99 C_e :2pz    0.0176  -0.0619   0.2135   0.0265   0.2005  -0.1257  -0.1343
 105 C_e :2pz    0.0005  -0.0019   0.0072   0.0010   0.0106  -0.0081  -0.0130
 107 C_e :3d1-  -0.0027   0.0061   0.0061   0.0115   0.0014  -0.0142   0.0051
 122 C_f :2pz   -0.0222   0.0370   0.1890   0.1475   0.1016  -0.2058   0.0171
 128 C_f :2pz   -0.0007   0.0010   0.0066   0.0070   0.0043  -0.0154   0.0009
 130 C_f :3d1-  -0.0027   0.0072  -0.0091   0.0043  -0.0138   0.0041   0.0129
 145 C_g :2pz   -0.0703   0.1635   0.0413   0.2091  -0.1405  -0.0829   0.2159
 151 C_g :2pz   -0.0019   0.0046   0.0007   0.0078  -0.0059  -0.0075   0.0223
 153 C_g :3d1-  -0.0032   0.0083  -0.0086   0.0026  -0.0129   0.0090   0.0067
 168 C_h :2pz   -0.0817   0.1990  -0.0794   0.1336  -0.2090   0.0715   0.1393
 171 C_h :2pz    0.0040  -0.0100   0.0090   0.0032   0.0027  -0.0063   0.0077
 174 C_h :2pz   -0.0021   0.0051  -0.0029   0.0052  -0.0116   0.0065   0.0137
 176 C_h :3d1-   0.0016  -0.0032  -0.0075  -0.0122   0.0040   0.0101  -0.0157
 191 C_i :2pz   -0.0653   0.1682  -0.2085  -0.0767  -0.1111   0.2153  -0.1616
 197 C_i :2pz   -0.0014   0.0034  -0.0052  -0.0013  -0.0081   0.0167  -0.0175
 199 C_i :3d1-   0.0005  -0.0007  -0.0078  -0.0120   0.0071   0.0048  -0.0144
 214 C_j :2pz   -0.0341   0.0946  -0.2091  -0.1797   0.0336   0.1338  -0.2091
 220 C_j :2pz   -0.0011   0.0031  -0.0075  -0.0087   0.0039   0.0074  -0.0187
 222 C_j :3d1-   0.0037  -0.0092   0.0074  -0.0017   0.0114  -0.0147   0.0083
 237 C_k :2pz    0.0238  -0.0486  -0.0949  -0.1981   0.2138  -0.1362  -0.0006
 243 C_k :2pz    0.0002  -0.0003  -0.0045  -0.0096   0.0127  -0.0102   0.0012
 245 C_k :3d1-   0.0035  -0.0085   0.0065  -0.0002   0.0084  -0.0138   0.0128
 260 C_l :2pz    0.0572  -0.1337   0.0244  -0.1015   0.1900  -0.2076   0.1426
 263 C_l :2pz   -0.0046   0.0111  -0.0080  -0.0047   0.0022  -0.0003  -0.0014
 266 C_l :2pz    0.0021  -0.0052   0.0032  -0.0012   0.0069  -0.0117   0.0103
 268 C_l :3d1-   0.0012  -0.0034   0.0096   0.0127  -0.0110   0.0045   0.0048
 283 C_m :2pz    0.0852  -0.2081   0.1848   0.1111  -0.0157  -0.0838   0.1676
 289 C_m :2pz    0.0022  -0.0055   0.0063   0.0048  -0.0007  -0.0067   0.0170
 291 C_m :3d1-   0.0022  -0.0055   0.0094   0.0119  -0.0120   0.0091  -0.0029
 306 C_n :2pz    0.0790  -0.1953   0.2164   0.1953  -0.1463   0.0728   0.0166
 309 C_n :2pz   -0.0048   0.0118  -0.0118  -0.0105   0.0093  -0.0084   0.0081
 314 C_n :3d1-  -0.0028   0.0069  -0.0046  -0.0002  -0.0053   0.0110  -0.0156
 319 C_n :3d1-  -0.0004   0.0011  -0.0004   0.0015  -0.0044   0.0078  -0.0110
 329 C_o :2pz    0.0417  -0.1048   0.1482   0.1806  -0.2070   0.2243  -0.2296
 335 C_o :2pz    0.0016  -0.0040   0.0064   0.0095  -0.0136   0.0191  -0.0259
 352 C_p :2pz   -0.0016   0.0026   0.0201   0.0478  -0.0785   0.1105  -0.1409
 358 C_p :2pz    0.0017  -0.0043   0.0064   0.0084  -0.0112   0.0150  -0.0208
 360 C_p :3d1-  -0.0041   0.0103  -0.0133  -0.0154   0.0171  -0.0184   0.0189
 365 C_p :3d1-  -0.0010   0.0026  -0.0050  -0.0072   0.0092  -0.0108   0.0120
 375 C_q :2pz    0.0691  -0.1534  -0.2051   0.1833   0.1001  -0.0249  -0.1512
 378 C_q :2pz    0.0031   0.0032   0.0037  -0.0051  -0.0063  -0.0078  -0.0100
 381 C_q :2pz    0.0022  -0.0028  -0.0062   0.0077   0.0057  -0.0027  -0.0196
 383 C_q :3d1-   0.0030  -0.0086  -0.0061   0.0002  -0.0068  -0.0126  -0.0149
 398 C_r :2pz    0.0747  -0.1839  -0.1705   0.0799  -0.0430  -0.1517  -0.2033
 404 C_r :2pz    0.0045  -0.0077  -0.0090   0.0059  -0.0010  -0.0106  -0.0205
 406 C_r :3d1-  -0.0022   0.0041   0.0101  -0.0130  -0.0108  -0.0029   0.0083
 421 C_s :2pz    0.0417  -0.1282   0.0004  -0.1432  -0.2112  -0.1538   0.0078
 427 C_s :2pz    0.0002  -0.0036   0.0004  -0.0067  -0.0130  -0.0125   0.0031
 429 C_s :3d1-  -0.0018   0.0028   0.0099  -0.0119  -0.0069   0.0031   0.0126
 444 C_t :2pz    0.0021  -0.0362   0.1173  -0.2023  -0.1603  -0.0139   0.1425
 450 C_t :2pz   -0.0012   0.0004   0.0062  -0.0109  -0.0105  -0.0017   0.0131
 452 C_t :3d1-  -0.0035   0.0092   0.0055   0.0040   0.0129   0.0137   0.0034
 467 C_u :2pz   -0.0566   0.1171   0.2083  -0.1160   0.0815   0.2105   0.1398
 473 C_u :2pz   -0.0003   0.0026   0.0060  -0.0045   0.0052   0.0168   0.0140
 475 C_u :3d1-  -0.0036   0.0092   0.0049   0.0059   0.0133   0.0092  -0.0040
 490 C_v :2pz   -0.0753   0.1767   0.1653   0.0166   0.1849   0.1742  -0.0071
 496 C_v :2pz   -0.0020   0.0047   0.0053   0.0018   0.0118   0.0140   0.0013
 498 C_v :3d1-   0.0010  -0.0011  -0.0103   0.0110  -0.0002  -0.0133  -0.0132
 513 C_w :2pz   -0.0650   0.1735  -0.0072   0.1963   0.1467  -0.0921  -0.2142
 519 C_w :2pz   -0.0026   0.0053   0.0010   0.0076   0.0078  -0.0072  -0.0231
 521 C_w :3d1-   0.0003   0.0005  -0.0100   0.0093  -0.0042  -0.0143  -0.0070
 536 C_x :2pz   -0.0338   0.1058  -0.1230   0.1996   0.0110  -0.1929  -0.1365
 542 C_x :2pz   -0.0005   0.0029  -0.0049   0.0088  -0.0000  -0.0156  -0.0154
 544 C_x :3d1-   0.0038  -0.0094  -0.0052  -0.0086  -0.0127   0.0018   0.0159
 559 C_y :2pz   -0.0539   0.1774   0.2041  -0.2184  -0.2261  -0.2244  -0.2091
 565 C_y :2pz   -0.0077   0.0104   0.0142  -0.0163  -0.0189  -0.0219  -0.0245
 572 C_y :3d1-  -0.0286  -0.0033   0.0075  -0.0079  -0.0077  -0.0072  -0.0062
 582 C_z :2pz   -0.0640   0.1753   0.1821  -0.1671  -0.1425  -0.1099  -0.0727
 585 C_z :2pz    0.0349   0.0041  -0.0050   0.0016  -0.0015  -0.0035  -0.0038
 590 C_z :3d1-   0.0020  -0.0067  -0.0097   0.0125   0.0151   0.0170   0.0175
 597 C_z :3d1+  -0.0126  -0.0041   0.0009  -0.0015  -0.0023  -0.0033  -0.0041
 605 C_{ :2pz   -0.0224   0.0922   0.0310   0.0439   0.1203   0.1855   0.2243
 608 C_{ :2pz   -0.0131  -0.0119  -0.0060   0.0056   0.0058   0.0067   0.0084
 611 C_{ :2pz   -0.0005  -0.0017  -0.0028   0.0053   0.0100   0.0176   0.0276
 613 C_{ :3d1-   0.0024  -0.0045  -0.0086   0.0115   0.0132   0.0130   0.0109
 628 C_| :2pz    0.0162  -0.0080  -0.0878   0.1522   0.1921   0.1984   0.1697
 634 C_| :2pz   -0.0030   0.0020   0.0001   0.0041   0.0089   0.0137   0.0182
 636 C_| :3d1-   0.0030  -0.0086  -0.0070   0.0027  -0.0035  -0.0104  -0.0162
 641 C_| :3d1-  -0.0022  -0.0029  -0.0024   0.0015  -0.0014  -0.0061  -0.0113
 651 N_a :2pz   -0.0593   0.1465  -0.1695  -0.1777   0.1833  -0.1863   0.1858
 654 N_a :2pz   -0.0050   0.0123  -0.0150  -0.0168   0.0186  -0.0203   0.0219
 657 N_a :2pz   -0.0072   0.0180  -0.0230  -0.0268   0.0312  -0.0363   0.0423
 674 N_b :2pz    0.0133  -0.0146  -0.0150   0.0100   0.0037  -0.0035  -0.0103
 680 N_b :2pz    0.0038  -0.0101  -0.0103   0.0092   0.0075   0.0058   0.0043
 682 N_b :3d1-  -0.0403  -0.0107   0.0048  -0.0057  -0.0061  -0.0063  -0.0060
 684 N_b :3d1+  -0.0345  -0.0194  -0.0065   0.0065   0.0066   0.0066   0.0062
 697 O_a :2pz    0.6165   0.1844  -0.0511   0.0628   0.0681   0.0698   0.0673
 700 O_a :2pz    0.0477   0.0154  -0.0029   0.0040   0.0047   0.0053   0.0056
 703 O_a :2pz    0.0609   0.0222  -0.0020   0.0043   0.0063   0.0082   0.0096
 705 O_a :3d1-   0.0132   0.0037  -0.0012   0.0013   0.0013   0.0012   0.0009
 710 O_a :3d1-   0.0283   0.0085  -0.0022   0.0026   0.0027   0.0026   0.0024
 720 O_b :2pz   -0.5804  -0.2959  -0.0762   0.0722   0.0715   0.0699   0.0653
 723 O_b :2pz   -0.0461  -0.0218  -0.0047   0.0049   0.0054   0.0059   0.0061
 726 O_b :2pz   -0.0607  -0.0258  -0.0037   0.0043   0.0056   0.0070   0.0082
 730 O_b :3d1+   0.0118   0.0062   0.0017  -0.0014  -0.0013  -0.0011  -0.0008
 735 O_b :3d1+   0.0257   0.0126   0.0028  -0.0026  -0.0026  -0.0025  -0.0022

    Orbital       112      113      114      115      116      117      118
   2 C_a :1s    -0.0000  -0.0000   0.0000   0.0000   0.0025   0.0295  -0.0000
   3 C_a :1s     0.0000   0.0000   0.0000  -0.0000   0.0006  -0.1911  -0.0000
   4 C_a :1s    -0.0000  -0.0000   0.0000  -0.0000  -0.5240  -9.8459  -0.0000
   5 C_a :2px   -0.0000  -0.0000   0.0000   0.0000  -0.0022  -0.0192   0.0000
   7 C_a :2pz   -0.1498  -0.1542  -0.1979   0.1195  -0.0000   0.0000   0.1915
   8 C_a :2px   -0.0000   0.0000   0.0000  -0.0000   0.0697  -0.0311   0.0000
   9 C_a :2py   -0.0000   0.0000   0.0000   0.0000  -0.0185   0.1550   0.0000
  10 C_a :2pz   -0.0025  -0.0119  -0.0132   0.0119   0.0000   0.0000   0.0293
  11 C_a :2px    0.0000  -0.0000   0.0000  -0.0000   0.7379  -1.6941   0.0000
  12 C_a :2py   -0.0000   0.0000   0.0000   0.0000  -2.9480  -0.3694  -0.0000
  13 C_a :2pz   -0.0188  -0.0418  -0.0525   0.0786  -0.0000   0.0000   0.1909
  15 C_a :3d1-   0.0021  -0.0171  -0.0101  -0.0167  -0.0000   0.0000  -0.0065
  19 C_a :3d2-   0.0000   0.0000   0.0000   0.0000   0.0172   0.0065   0.0000
  20 C_a :3d1-   0.0017  -0.0116  -0.0071  -0.0182  -0.0000  -0.0000  -0.0081
  21 C_a :3d0    0.0000   0.0000  -0.0000   0.0000   0.0082   0.0307   0.0000
  23 C_a :3d2+  -0.0000  -0.0000   0.0000  -0.0000   0.0448  -0.0793   0.0000
  25 C_b :1s     0.0000  -0.0000  -0.0000   0.0000   0.0023  -0.0304  -0.0000
  26 C_b :1s    -0.0000  -0.0000  -0.0000  -0.0000   0.0058   0.1016   0.0000
  27 C_b :1s    -0.0000   0.0000  -0.0000   0.0000  -0.2913   8.8921   0.0000
  28 C_b :2px   -0.0000  -0.0000   0.0000   0.0000   0.0019  -0.0264   0.0000
  30 C_b :2pz   -0.0105  -0.2082  -0.1291  -0.1931  -0.0000  -0.0000  -0.1088
  31 C_b :2px   -0.0000  -0.0000  -0.0000   0.0000  -0.0309   0.0523  -0.0000
  32 C_b :2py   -0.0000   0.0000   0.0000   0.0000  -0.0665   0.1725   0.0000
  33 C_b :2pz   -0.0056  -0.0106  -0.0114  -0.0230   0.0000  -0.0000  -0.0122
  34 C_b :2px   -0.0000   0.0000   0.0000   0.0000   1.0647  -1.4982  -0.0000
  35 C_b :2py    0.0000  -0.0000   0.0000  -0.0000  -2.9243  -0.9763   0.0000
  36 C_b :2pz   -0.0080  -0.0372  -0.0415  -0.1470  -0.0000  -0.0000  -0.0838
  38 C_b :3d1-   0.0138   0.0108   0.0172  -0.0091   0.0000  -0.0000  -0.0167
  42 C_b :3d2-  -0.0000   0.0000   0.0000  -0.0000   0.0421  -0.0543   0.0000
  43 C_b :3d1-   0.0099   0.0076   0.0134  -0.0106  -0.0000   0.0000  -0.0187
  44 C_b :3d0   -0.0000  -0.0000   0.0000   0.0000   0.0065  -0.0280  -0.0000
  46 C_b :3d2+   0.0000   0.0000   0.0000   0.0000   0.0310   0.0015  -0.0000
  48 C_c :1s    -0.0000  -0.0000   0.0000   0.0000   0.0022   0.0229  -0.0000
  49 C_c :1s    -0.0000  -0.0000   0.0000  -0.0000  -0.0136  -0.1541   0.0000
  50 C_c :1s     0.0000  -0.0000  -0.0000  -0.0000  -0.3273  -7.4887  -0.0000
  51 C_c :2px    0.0000   0.0000  -0.0000  -0.0000  -0.0019  -0.0146  -0.0000
  53 C_c :2pz    0.2118   0.0802   0.2199  -0.0969  -0.0000   0.0000  -0.2051
  54 C_c :2px    0.0000   0.0000  -0.0000  -0.0000   0.0736  -0.0332  -0.0000
  55 C_c :2py   -0.0000   0.0000   0.0000  -0.0000  -0.0707   0.1471   0.0000
  56 C_c :2pz    0.0073   0.0084   0.0149  -0.0091  -0.0000   0.0000  -0.0294
  57 C_c :2px    0.0000  -0.0000  -0.0000  -0.0000   1.0643  -1.3678  -0.0000
  58 C_c :2py   -0.0000   0.0000   0.0000   0.0000  -3.5609   0.0796  -0.0000
  59 C_c :2pz    0.0312   0.0269   0.0591  -0.0586  -0.0000   0.0000  -0.1981
  61 C_c :3d1-   0.0069   0.0151   0.0124   0.0149   0.0000   0.0000   0.0117
  65 C_c :3d2-   0.0000   0.0000   0.0000  -0.0000  -0.0031   0.0134   0.0000
  66 C_c :3d1-   0.0039   0.0103   0.0088   0.0161  -0.0000  -0.0000   0.0139
  67 C_c :3d0   -0.0000  -0.0000   0.0000  -0.0000   0.0072   0.0239   0.0000
  69 C_c :3d2+   0.0000   0.0000  -0.0000   0.0000   0.0464  -0.0658  -0.0000
  71 C_d :1s     0.0000   0.0000   0.0000  -0.0000   0.0012  -0.0227   0.0000
  72 C_d :1s    -0.0000  -0.0000   0.0000  -0.0000   0.0229   0.0702  -0.0000
  73 C_d :1s    -0.0000   0.0000   0.0000   0.0000  -0.2011   6.6210  -0.0000
  74 C_d :2px   -0.0000   0.0000   0.0000   0.0000   0.0013  -0.0195  -0.0000
  76 C_d :2pz    0.1227   0.1754   0.1568   0.1703   0.0000  -0.0000   0.1645
  77 C_d :2px    0.0000   0.0000  -0.0000   0.0000  -0.0451   0.0288  -0.0000
  78 C_d :2py   -0.0000   0.0000   0.0000  -0.0000  -0.0979   0.1558  -0.0000
  79 C_d :2pz    0.0090   0.0072   0.0131   0.0204  -0.0000   0.0000   0.0202
  80 C_d :2px   -0.0000   0.0000  -0.0000   0.0000   0.8371  -1.1347   0.0000
  81 C_d :2py    0.0000  -0.0000  -0.0000  -0.0000  -3.1331  -0.7086   0.0000
  82 C_d :2pz    0.0218   0.0267   0.0479   0.1287   0.0000  -0.0000   0.1393
  84 C_d :3d1-  -0.0169  -0.0043  -0.0189   0.0072   0.0000  -0.0000   0.0171
  88 C_d :3d2-   0.0000   0.0000  -0.0000   0.0000   0.0377  -0.0487  -0.0000
  89 C_d :3d1-  -0.0117  -0.0028  -0.0147   0.0085  -0.0000   0.0000   0.0195
  90 C_d :3d0   -0.0000  -0.0000  -0.0000  -0.0000   0.0047  -0.0212   0.0000
  94 C_e :1s    -0.0000  -0.0000  -0.0000  -0.0000   0.0022   0.0171   0.0000
  95 C_e :1s     0.0000   0.0000  -0.0000  -0.0000  -0.0254  -0.1168   0.0000
  96 C_e :1s    -0.0000  -0.0000  -0.0000  -0.0000  -0.2706  -5.5262   0.0000
  97 C_e :2px   -0.0000  -0.0000   0.0000   0.0000  -0.0014  -0.0107   0.0000
  99 C_e :2pz   -0.2025   0.0074  -0.2356   0.0752   0.0000  -0.0000   0.1985
 100 C_e :2px   -0.0000  -0.0000   0.0000   0.0000   0.0620  -0.0296   0.0000
 101 C_e :2py   -0.0000  -0.0000   0.0000  -0.0000  -0.0789   0.1352   0.0000
 102 C_e :2pz   -0.0098  -0.0038  -0.0162   0.0064  -0.0000  -0.0000   0.0268
 103 C_e :2px   -0.0000  -0.0000   0.0000  -0.0000   0.9879  -1.0969   0.0000
 104 C_e :2py   -0.0000   0.0000   0.0000  -0.0000  -3.8290   0.3797  -0.0000
 105 C_e :2pz   -0.0327  -0.0082  -0.0643   0.0416   0.0000  -0.0000   0.1846
 107 C_e :3d1-  -0.0137  -0.0109  -0.0145  -0.0130  -0.0000   0.0000  -0.0155
 111 C_e :3d2-  -0.0000  -0.0000   0.0000  -0.0000  -0.0015   0.0184   0.0000
 112 C_e :3d1-  -0.0083  -0.0076  -0.0103  -0.0138   0.0000  -0.0000  -0.0179
 113 C_e :3d0    0.0000   0.0000   0.0000   0.0000   0.0057   0.0186  -0.0000
 115 C_e :3d2+  -0.0000  -0.0000   0.0000   0.0000   0.0398  -0.0505   0.0000
 117 C_f :1s    -0.0000   0.0000   0.0000   0.0000   0.0020  -0.0159  -0.0000
 118 C_f :1s     0.0000  -0.0000  -0.0000   0.0000  -0.0392   0.0441  -0.0000
 119 C_f :1s    -0.0000   0.0000   0.0000   0.0000  -0.3832   4.7367  -0.0000
 120 C_f :2px    0.0000   0.0000  -0.0000   0.0000   0.0000  -0.0138  -0.0000
 122 C_f :2pz   -0.1959  -0.1163  -0.1820  -0.1464   0.0000   0.0000  -0.2017
 123 C_f :2px    0.0000   0.0000  -0.0000   0.0000   0.0278   0.0162  -0.0000
 124 C_f :2py   -0.0000   0.0000   0.0000  -0.0000  -0.1425   0.1325   0.0000
 125 C_f :2pz   -0.0092  -0.0026  -0.0144  -0.0176  -0.0000   0.0000  -0.0258
 126 C_f :2px    0.0000  -0.0000  -0.0000  -0.0000   1.2687  -0.7788   0.0000
 127 C_f :2py   -0.0000   0.0000   0.0000  -0.0000  -3.4402  -0.4761   0.0000
 128 C_f :2pz   -0.0283  -0.0123  -0.0531  -0.1097   0.0000   0.0000  -0.1776
 130 C_f :3d1-   0.0142  -0.0030   0.0200  -0.0054  -0.0000   0.0000  -0.0159
 134 C_f :3d2-  -0.0000  -0.0000   0.0000   0.0000   0.0606  -0.0390  -0.0000
 135 C_f :3d1-   0.0094  -0.0026   0.0155  -0.0066   0.0000  -0.0000  -0.0184
 136 C_f :3d0    0.0000  -0.0000  -0.0000  -0.0000   0.0066  -0.0148   0.0000
 138 C_f :3d2+  -0.0000  -0.0000   0.0000  -0.0000   0.0113   0.0119   0.0000
 140 C_g :1s    -0.0000  -0.0000  -0.0000  -0.0000   0.0019   0.0125  -0.0000
 141 C_g :1s    -0.0000  -0.0000   0.0000  -0.0000  -0.0712  -0.0886   0.0000
 142 C_g :1s     0.0000  -0.0000  -0.0000  -0.0000  -0.3385  -4.0346   0.0000
 145 C_g :2pz    0.1210  -0.0957   0.2427  -0.0552  -0.0000   0.0000  -0.1748
 146 C_g :2px    0.0000  -0.0000  -0.0000   0.0000   0.0856  -0.0201  -0.0000
 147 C_g :2py    0.0000  -0.0000   0.0000  -0.0000  -0.2026   0.1100   0.0000
 148 C_g :2pz    0.0088  -0.0014   0.0171  -0.0041   0.0000  -0.0000  -0.0220
 149 C_g :2px   -0.0000  -0.0000  -0.0000  -0.0000   1.1954  -0.8310  -0.0000
 150 C_g :2py    0.0000  -0.0000   0.0000  -0.0000  -4.2035   0.4446  -0.0000
 151 C_g :2pz    0.0228  -0.0117   0.0678  -0.0273  -0.0000   0.0000  -0.1551
 153 C_g :3d1-   0.0158   0.0051   0.0163   0.0110  -0.0000   0.0000   0.0176
 157 C_g :3d2-   0.0000   0.0000  -0.0000   0.0000  -0.0457   0.0187  -0.0000
 158 C_g :3d1-   0.0098   0.0036   0.0116   0.0116   0.0000  -0.0000   0.0200
 159 C_g :3d0   -0.0000   0.0000   0.0000   0.0000   0.0030   0.0145  -0.0000
 161 C_g :3d2+   0.0000  -0.0000  -0.0000   0.0000   0.0546  -0.0342  -0.0000
[...]

       No.  Residual tot.,    conf., and orb.    Bnorm      Frequency 
      ----------------------------------------------------------------
         1    2.10993D-01  0.00D+00  2.11D-01  1.27D+02    0.00000D+00
         2    2.18274D-01  0.00D+00  2.18D-01  1.32D+02    1.54000D-02
         3    2.43149D-01  0.00D+00  2.43D-01  1.48D+02    3.08000D-02

 ** RSPCTL MICROITERATION NUMBER    7

       No.  Residual tot.,    conf., and orb.    Bnorm      Frequency 
      ----------------------------------------------------------------
         1    5.46536D-02  0.00D+00  5.47D-02  1.27D+02    0.00000D+00
         2    5.69347D-02  0.00D+00  5.69D-02  1.32D+02    1.54000D-02
         3    6.49262D-02  0.00D+00  6.49D-02  1.48D+02    3.08000D-02

 *** THE REQUESTED    3 SOLUTION VECTORS CONVERGED

 Convergence of RSP solution vectors, threshold = 1.00D-03
 ---------------------------------------------------------------
 (dimension of paired reduced space:   42)
 RSP solution vector no.    1; norm of residual   4.31D-04
 RSP solution vector no.    2; norm of residual   4.33D-04
 RSP solution vector no.    3; norm of residual   4.40D-04

 *** RSPCTL MICROITERATIONS CONVERGED

@ QRLRVE: SINGLET SOLUTION FOR SYMMETRY    1  ( A  )    LABEL   YDIPLEN     FREQUENCY   0.000000D+00

@ QRLRVE:  << XDIPLEN  ; YDIPLEN  >> (   0.00000):    -478.937988814    

@ QRLRVE:  << YDIPLEN  ; YDIPLEN  >> (   0.00000):     2763.21929715    

@ QRLRVE:  << ZDIPLEN  ; YDIPLEN  >> (   0.00000):    1.720496062055E-13

@ QRLRVE: SINGLET SOLUTION FOR SYMMETRY    1  ( A  )    LABEL   YDIPLEN     FREQUENCY   0.154000D-01

@ QRLRVE:  << XDIPLEN  ; YDIPLEN  >> (   0.01540):    -492.377066361    

@ QRLRVE:  << YDIPLEN  ; YDIPLEN  >> (   0.01540):     2832.54930363    

@ QRLRVE:  << ZDIPLEN  ; YDIPLEN  >> (   0.01540):    1.767066359727E-13

@ QRLRVE: SINGLET SOLUTION FOR SYMMETRY    1  ( A  )    LABEL   YDIPLEN     FREQUENCY   0.308000D-01

@ QRLRVE:  << XDIPLEN  ; YDIPLEN  >> (   0.03080):    -537.693732457    

@ QRLRVE:  << YDIPLEN  ; YDIPLEN  >> (   0.03080):     3066.16018754    

@ QRLRVE:  << ZDIPLEN  ; YDIPLEN  >> (   0.03080):    1.923181690699E-13


 QRLRVE -- linear response calculation for symmetry  1  ( A  )
 QRLRVE -- operator label : ZDIPLEN 
 QRLRVE -- operator spin  :   0
 QRLRVE -- frequencies :  0.000000  0.015400  0.030800



 ---  SOLVING SETS OF LINEAR EQUATIONS FOR LINEAR RESPONSE PROPERTIES ---

 Operator symmetry = 1  ( A  ); triplet =   F


 ** RSPCTL MICROITERATION NUMBER    1

       No.  Residual tot.,    conf., and orb.    Bnorm      Frequency 
      ----------------------------------------------------------------
         1    4.29482D+00  0.00D+00  4.29D+00  1.17D+01    0.00000D+00
         2    4.29726D+00  0.00D+00  4.30D+00  1.17D+01    1.54000D-02
         3    4.30463D+00  0.00D+00  4.30D+00  1.18D+01    3.08000D-02

 ** RSPCTL MICROITERATION NUMBER    2

       No.  Residual tot.,    conf., and orb.    Bnorm      Frequency 
      ----------------------------------------------------------------
         1    9.48919D-01  0.00D+00  9.49D-01  1.22D+01    0.00000D+00
         2    9.50624D-01  0.00D+00  9.51D-01  1.22D+01    1.54000D-02
         3    9.55777D-01  0.00D+00  9.56D-01  1.23D+01    3.08000D-02

 ** RSPCTL MICROITERATION NUMBER    3

       No.  Residual tot.,    conf., and orb.    Bnorm      Frequency 
      ----------------------------------------------------------------
         1    1.92468D-01  0.00D+00  1.92D-01  1.22D+01    0.00000D+00
         2    1.93195D-01  0.00D+00  1.93D-01  1.22D+01    1.54000D-02
         3    1.95400D-01  0.00D+00  1.95D-01  1.23D+01    3.08000D-02

 ** RSPCTL MICROITERATION NUMBER    4

       No.  Residual tot.,    conf., and orb.    Bnorm      Frequency 
      ----------------------------------------------------------------
         1    5.77645D-02  0.00D+00  5.78D-02  1.22D+01    0.00000D+00
         2    5.83137D-02  0.00D+00  5.83D-02  1.22D+01    1.54000D-02
         3    6.00081D-02  0.00D+00  6.00D-02  1.23D+01    3.08000D-02

 ** RSPCTL MICROITERATION NUMBER    5

       No.  Residual tot.,    conf., and orb.    Bnorm      Frequency 
      ----------------------------------------------------------------
         1    1.95101D-02  0.00D+00  1.95D-02  1.22D+01    0.00000D+00
         2    1.98330D-02  0.00D+00  1.98D-02  1.22D+01    1.54000D-02
         3    2.08363D-02  0.00D+00  2.08D-02  1.23D+01    3.08000D-02

 ** RSPCTL MICROITERATION NUMBER    6

       No.  Residual tot.,    conf., and orb.    Bnorm      Frequency 
      ----------------------------------------------------------------
         1    6.88524D-03  0.00D+00  6.89D-03  1.22D+01    0.00000D+00
         2    7.05390D-03  0.00D+00  7.05D-03  1.22D+01    1.54000D-02
         3    7.58188D-03  0.00D+00  7.58D-03  1.23D+01    3.08000D-02

 *** THE REQUESTED    3 SOLUTION VECTORS CONVERGED

 Convergence of RSP solution vectors, threshold = 1.00D-03
 ---------------------------------------------------------------
 (dimension of paired reduced space:   36)
 RSP solution vector no.    1; norm of residual   5.64D-04
 RSP solution vector no.    2; norm of residual   5.77D-04
 RSP solution vector no.    3; norm of residual   6.16D-04

 *** RSPCTL MICROITERATIONS CONVERGED

@ QRLRVE: SINGLET SOLUTION FOR SYMMETRY    1  ( A  )    LABEL   ZDIPLEN     FREQUENCY   0.000000D+00

@ QRLRVE:  << XDIPLEN  ; ZDIPLEN  >> (   0.00000):    4.504159808760E-15

@ QRLRVE:  << YDIPLEN  ; ZDIPLEN  >> (   0.00000):    8.797619316594E-14

@ QRLRVE:  << ZDIPLEN  ; ZDIPLEN  >> (   0.00000):     216.798752271    

@ QRLRVE: SINGLET SOLUTION FOR SYMMETRY    1  ( A  )    LABEL   ZDIPLEN     FREQUENCY   0.154000D-01

@ QRLRVE:  << XDIPLEN  ; ZDIPLEN  >> (   0.01540):    4.356822387519E-15

@ QRLRVE:  << YDIPLEN  ; ZDIPLEN  >> (   0.01540):    8.995959280103E-14

@ QRLRVE:  << ZDIPLEN  ; ZDIPLEN  >> (   0.01540):     216.977542947    

@ QRLRVE: SINGLET SOLUTION FOR SYMMETRY    1  ( A  )    LABEL   ZDIPLEN     FREQUENCY   0.308000D-01

@ QRLRVE:  << XDIPLEN  ; ZDIPLEN  >> (   0.03080):    3.799326687590E-15

@ QRLRVE:  << YDIPLEN  ; ZDIPLEN  >> (   0.03080):    9.659879476017E-14

@ QRLRVE:  << ZDIPLEN  ; ZDIPLEN  >> (   0.03080):     217.517034134    
 
 ======================================================================
 ---  L I N E A R   R E S P O N S E   F U N C T I O N S --- 
 ======================================================================

 The -<<A;B>>(omega_b) functions from vectors generated
 in a *QUADRA calculation of <<A;B,C>>(omega_b,omega_c)

 Note: the accuracy of off-diagonal elements will be linear
 in the convergence threshold THCLR =  1.00D-03


 Perturbation symmetry.     KSYMOP:           1
 Perturbation spin symmetry.TRPLET:           F
 Orbital variables.         KZWOPT:      101460
 Configuration variables.   KZCONF:           0
 Total number of variables. KZVAR :      101460

@ Singlet linear response function in a.u.

@ A operator, symmetry, frequency:   XDIPLEN    1 -0.000000
@ B operator, symmetry, frequency:   XDIPLEN    1  0.000000

@ Value of linear response -<<A;B>>(omega):     387.079326033348

@ Singlet linear response function in a.u.

@ A operator, symmetry, frequency:   YDIPLEN    1 -0.000000
@ B operator, symmetry, frequency:   XDIPLEN    1  0.000000

@ Value of linear response -<<A;B>>(omega):    -479.002406108399

@ Singlet linear response function in a.u.

@ A operator, symmetry, frequency:   ZDIPLEN    1 -0.000000
@ B operator, symmetry, frequency:   XDIPLEN    1  0.000000

@ Value of linear response -<<A;B>>(omega):      -0.000000000000

@ Singlet linear response function in a.u.

@ A operator, symmetry, frequency:   XDIPLEN    1 -0.015400
@ B operator, symmetry, frequency:   XDIPLEN    1  0.015400

@ Value of linear response -<<A;B>>(omega):     389.977536492354

@ Singlet linear response function in a.u.

@ A operator, symmetry, frequency:   YDIPLEN    1 -0.015400
@ B operator, symmetry, frequency:   XDIPLEN    1  0.015400

@ Value of linear response -<<A;B>>(omega):    -492.445358388443

@ Singlet linear response function in a.u.

@ A operator, symmetry, frequency:   ZDIPLEN    1 -0.015400
@ B operator, symmetry, frequency:   XDIPLEN    1  0.015400

@ Value of linear response -<<A;B>>(omega):      -0.000000000000

@ Singlet linear response function in a.u.

@ A operator, symmetry, frequency:   XDIPLEN    1 -0.000000
@ B operator, symmetry, frequency:   YDIPLEN    1  0.000000

@ Value of linear response -<<A;B>>(omega):    -478.937988814485

@ Singlet linear response function in a.u.

@ A operator, symmetry, frequency:   YDIPLEN    1 -0.000000
@ B operator, symmetry, frequency:   YDIPLEN    1  0.000000

@ Value of linear response -<<A;B>>(omega):    2763.219297146063

@ Singlet linear response function in a.u.

@ A operator, symmetry, frequency:   ZDIPLEN    1 -0.000000
@ B operator, symmetry, frequency:   YDIPLEN    1  0.000000

@ Value of linear response -<<A;B>>(omega):       0.000000000000

@ Singlet linear response function in a.u.

@ A operator, symmetry, frequency:   XDIPLEN    1 -0.015400
@ B operator, symmetry, frequency:   YDIPLEN    1  0.015400

@ Value of linear response -<<A;B>>(omega):    -492.377066360643

@ Singlet linear response function in a.u.

@ A operator, symmetry, frequency:   YDIPLEN    1 -0.015400
@ B operator, symmetry, frequency:   YDIPLEN    1  0.015400

@ Value of linear response -<<A;B>>(omega):    2832.549303628707

@ Singlet linear response function in a.u.

@ A operator, symmetry, frequency:   ZDIPLEN    1 -0.015400
@ B operator, symmetry, frequency:   YDIPLEN    1  0.015400

@ Value of linear response -<<A;B>>(omega):       0.000000000000

@ Singlet linear response function in a.u.

@ A operator, symmetry, frequency:   XDIPLEN    1 -0.000000
@ B operator, symmetry, frequency:   ZDIPLEN    1  0.000000

@ Value of linear response -<<A;B>>(omega):       0.000000000000

@ Singlet linear response function in a.u.

@ A operator, symmetry, frequency:   YDIPLEN    1 -0.000000
@ B operator, symmetry, frequency:   ZDIPLEN    1  0.000000

@ Value of linear response -<<A;B>>(omega):       0.000000000000

@ Singlet linear response function in a.u.

@ A operator, symmetry, frequency:   ZDIPLEN    1 -0.000000
@ B operator, symmetry, frequency:   ZDIPLEN    1  0.000000

@ Value of linear response -<<A;B>>(omega):     216.798752271120

@ Singlet linear response function in a.u.

@ A operator, symmetry, frequency:   XDIPLEN    1 -0.015400
@ B operator, symmetry, frequency:   ZDIPLEN    1  0.015400

@ Value of linear response -<<A;B>>(omega):       0.000000000000

@ Singlet linear response function in a.u.

@ A operator, symmetry, frequency:   YDIPLEN    1 -0.015400
@ B operator, symmetry, frequency:   ZDIPLEN    1  0.015400

@ Value of linear response -<<A;B>>(omega):       0.000000000000

@ Singlet linear response function in a.u.

@ A operator, symmetry, frequency:   ZDIPLEN    1 -0.015400
@ B operator, symmetry, frequency:   ZDIPLEN    1  0.015400

@ Value of linear response -<<A;B>>(omega):     216.977542947301


  Results from quadratic response calculation
 --------------------------------------------

@ B-freq = 0.000000  C-freq = 0.000000     beta(X;X,X) =  -2944.85145290
@ B-freq = 0.000000  C-freq = 0.000000     beta(Y;X,X) =  10586.55051126
@ B-freq = 0.000000  C-freq = 0.000000     beta(Z;X,X) =      0.00000000
@ B-freq = 0.015400  C-freq = 0.000000     beta(X;X,X) =  -3076.61856850
@ B-freq = 0.015400  C-freq = 0.000000     beta(Y;X,X) =  11128.65913739
@ B-freq = 0.015400  C-freq = 0.000000     beta(Z;X,X) =      0.00000000
@ B-freq = 0.000000  C-freq = 0.000000     beta(X;Y,X) = beta(Y,X,X)
@ B-freq = 0.000000  C-freq = 0.000000     beta(X;Y,X) =  10586.55070299
@ B-freq = 0.000000  C-freq = 0.000000     beta(Y;Y,X) = -35823.82690775
@ B-freq = 0.000000  C-freq = 0.000000     beta(Z;Y,X) =     -0.00000000
@ B-freq = 0.015400  C-freq = 0.000000     beta(X;Y,X) =  11128.65933702
@ B-freq = 0.015400  C-freq = 0.000000     beta(Y;Y,X) = -37995.41223483
@ B-freq = 0.015400  C-freq = 0.000000     beta(Z;Y,X) =     -0.00000000
@ B-freq = 0.000000  C-freq = 0.000000     beta(X;Z,X) = beta(Z,X,X)
@ B-freq = 0.000000  C-freq = 0.000000     beta(Y;Z,X) = beta(Z,Y,X)
@ B-freq = 0.000000  C-freq = 0.000000     beta(X;Z,X) =      0.00000000
@ B-freq = 0.000000  C-freq = 0.000000     beta(Y;Z,X) =     -0.00000000
@ B-freq = 0.000000  C-freq = 0.000000     beta(Z;Z,X) =     12.88219627
@ B-freq = 0.015400  C-freq = 0.000000     beta(X;Z,X) =      0.00000000
@ B-freq = 0.015400  C-freq = 0.000000     beta(Y;Z,X) =     -0.00000000
@ B-freq = 0.015400  C-freq = 0.000000     beta(Z;Z,X) =     12.99294636
@ B-freq = 0.000000  C-freq = 0.015400     beta(X;X,X) = beta(X,X,X)
@ B-freq = 0.000000  C-freq = 0.015400     beta(Y;X,X) = beta(Y,X,X)
@ B-freq = 0.000000  C-freq = 0.015400     beta(Z;X,X) = beta(Z,X,X)
@ B-freq = 0.015400  C-freq = 0.015400     beta(X;X,X) =  -3373.01542052
@ B-freq = 0.015400  C-freq = 0.015400     beta(Y;X,X) =  12466.57804194
@ B-freq = 0.015400  C-freq = 0.015400     beta(Z;X,X) =      0.00000000
@ B-freq = 0.000000  C-freq = 0.015400     beta(X;Y,X) =  11033.98426819
@ B-freq = 0.000000  C-freq = 0.015400     beta(Y;Y,X) = -37612.92040177
@ B-freq = 0.000000  C-freq = 0.015400     beta(Z;Y,X) =     -0.00000000
@ B-freq = 0.015400  C-freq = 0.015400     beta(X;Y,X) =  12143.27786433
@ B-freq = 0.015400  C-freq = 0.015400     beta(Y;Y,X) = -42530.74309400
@ B-freq = 0.015400  C-freq = 0.015400     beta(Z;Y,X) =     -0.00000000
@ B-freq = 0.000000  C-freq = 0.015400     beta(X;Z,X) =      0.00000000
@ B-freq = 0.000000  C-freq = 0.015400     beta(Y;Z,X) =     -0.00000000
@ B-freq = 0.000000  C-freq = 0.015400     beta(Z;Z,X) =     12.90073768
@ B-freq = 0.015400  C-freq = 0.015400     beta(X;Z,X) =      0.00000000
@ B-freq = 0.015400  C-freq = 0.015400     beta(Y;Z,X) =     -0.00000000
@ B-freq = 0.015400  C-freq = 0.015400     beta(Z;Z,X) =     13.12939515
@ B-freq = 0.000000  C-freq = 0.000000     beta(X;X,Y) = beta(Y,X,X)
@ B-freq = 0.000000  C-freq = 0.000000     beta(Y;X,Y) = beta(Y,Y,X)
@ B-freq = 0.000000  C-freq = 0.000000     beta(Z;X,Y) = beta(Z,Y,X)
@ B-freq = 0.015400  C-freq = 0.000000     beta(X;X,Y) = beta(X,Y,X)
@ B-freq = 0.015400  C-freq = 0.000000     beta(Y;X,Y) = beta(Y,Y,X)
@ B-freq = 0.015400  C-freq = 0.000000     beta(Z;X,Y) = beta(Z,Y,X)
@ B-freq = 0.000000  C-freq = 0.000000     beta(X;Y,Y) = beta(Y,Y,X)
@ B-freq = 0.000000  C-freq = 0.000000     beta(X;Y,Y) = -35823.82862480
@ B-freq = 0.000000  C-freq = 0.000000     beta(Y;Y,Y) = 111491.52362951
@ B-freq = 0.000000  C-freq = 0.000000     beta(Z;Y,Y) =      0.00000000
@ B-freq = 0.015400  C-freq = 0.000000     beta(X;Y,Y) = -37612.92218959
@ B-freq = 0.015400  C-freq = 0.000000     beta(Y;Y,Y) = 118351.58947670
@ B-freq = 0.015400  C-freq = 0.000000     beta(Z;Y,Y) =      0.00000000
@ B-freq = 0.000000  C-freq = 0.000000     beta(X;Z,Y) = beta(Z,Y,X)
@ B-freq = 0.000000  C-freq = 0.000000     beta(Y;Z,Y) = beta(Z,Y,Y)
@ B-freq = 0.000000  C-freq = 0.000000     beta(X;Z,Y) =     -0.00000000
@ B-freq = 0.000000  C-freq = 0.000000     beta(Y;Z,Y) =      0.00000000
@ B-freq = 0.000000  C-freq = 0.000000     beta(Z;Z,Y) =    -29.75893755
@ B-freq = 0.015400  C-freq = 0.000000     beta(X;Z,Y) =     -0.00000000
@ B-freq = 0.015400  C-freq = 0.000000     beta(Y;Z,Y) =      0.00000000
@ B-freq = 0.015400  C-freq = 0.000000     beta(Z;Z,Y) =    -30.28317752
@ B-freq = 0.000000  C-freq = 0.015400     beta(X;X,Y) = beta(X,Y,X)
@ B-freq = 0.000000  C-freq = 0.015400     beta(Y;X,Y) = beta(Y,Y,X)
@ B-freq = 0.000000  C-freq = 0.015400     beta(Z;X,Y) = beta(Z,Y,X)
@ B-freq = 0.015400  C-freq = 0.015400     beta(X;X,Y) = beta(X,Y,X)
@ B-freq = 0.015400  C-freq = 0.015400     beta(Y;X,Y) = beta(Y,Y,X)
@ B-freq = 0.015400  C-freq = 0.015400     beta(Z;X,Y) = beta(Z,Y,X)
@ B-freq = 0.000000  C-freq = 0.015400     beta(X;Y,Y) = beta(X,Y,Y)
@ B-freq = 0.000000  C-freq = 0.015400     beta(Y;Y,Y) = beta(Y,Y,Y)
@ B-freq = 0.000000  C-freq = 0.015400     beta(Z;Y,Y) = beta(Z,Y,Y)
@ B-freq = 0.015400  C-freq = 0.015400     beta(X;Y,Y) = -41227.66630938
@ B-freq = 0.015400  C-freq = 0.015400     beta(Y;Y,Y) = 134053.56303284
@ B-freq = 0.015400  C-freq = 0.015400     beta(Z;Y,Y) =      0.00000000
@ B-freq = 0.000000  C-freq = 0.015400     beta(X;Z,Y) =     -0.00000000
@ B-freq = 0.000000  C-freq = 0.015400     beta(Y;Z,Y) =      0.00000000
@ B-freq = 0.000000  C-freq = 0.015400     beta(Z;Z,Y) =    -29.85806717
@ B-freq = 0.015400  C-freq = 0.015400     beta(X;Z,Y) =     -0.00000000
@ B-freq = 0.015400  C-freq = 0.015400     beta(Y;Z,Y) =      0.00000000
@ B-freq = 0.015400  C-freq = 0.015400     beta(Z;Z,Y) =    -30.94658230
@ B-freq = 0.000000  C-freq = 0.000000     beta(X;X,Z) = beta(Z,X,X)
@ B-freq = 0.000000  C-freq = 0.000000     beta(Y;X,Z) = beta(Z,Y,X)
@ B-freq = 0.000000  C-freq = 0.000000     beta(Z;X,Z) = beta(Z,Z,X)
@ B-freq = 0.015400  C-freq = 0.000000     beta(X;X,Z) = beta(X,Z,X)
@ B-freq = 0.015400  C-freq = 0.000000     beta(Y;X,Z) = beta(Y,Z,X)
@ B-freq = 0.015400  C-freq = 0.000000     beta(Z;X,Z) = beta(Z,Z,X)
@ B-freq = 0.000000  C-freq = 0.000000     beta(X;Y,Z) = beta(Z,Y,X)
@ B-freq = 0.000000  C-freq = 0.000000     beta(Y;Y,Z) = beta(Z,Y,Y)
@ B-freq = 0.000000  C-freq = 0.000000     beta(Z;Y,Z) = beta(Z,Z,Y)
@ B-freq = 0.015400  C-freq = 0.000000     beta(X;Y,Z) = beta(X,Z,Y)
@ B-freq = 0.015400  C-freq = 0.000000     beta(Y;Y,Z) = beta(Y,Z,Y)
@ B-freq = 0.015400  C-freq = 0.000000     beta(Z;Y,Z) = beta(Z,Z,Y)
@ B-freq = 0.000000  C-freq = 0.000000     beta(X;Z,Z) = beta(Z,Z,X)
@ B-freq = 0.000000  C-freq = 0.000000     beta(Y;Z,Z) = beta(Z,Z,Y)
@ B-freq = 0.000000  C-freq = 0.000000     beta(X;Z,Z) =     12.88214851
@ B-freq = 0.000000  C-freq = 0.000000     beta(Y;Z,Z) =    -29.75868749
@ B-freq = 0.000000  C-freq = 0.000000     beta(Z;Z,Z) =      0.00000000
@ B-freq = 0.015400  C-freq = 0.000000     beta(X;Z,Z) =     12.90068827
@ B-freq = 0.015400  C-freq = 0.000000     beta(Y;Z,Z) =    -29.85780834
@ B-freq = 0.015400  C-freq = 0.000000     beta(Z;Z,Z) =      0.00000000
@ B-freq = 0.000000  C-freq = 0.015400     beta(X;X,Z) = beta(X,Z,X)
@ B-freq = 0.000000  C-freq = 0.015400     beta(Y;X,Z) = beta(Y,Z,X)
@ B-freq = 0.000000  C-freq = 0.015400     beta(Z;X,Z) = beta(Z,Z,X)
@ B-freq = 0.015400  C-freq = 0.015400     beta(X;X,Z) = beta(X,Z,X)
@ B-freq = 0.015400  C-freq = 0.015400     beta(Y;X,Z) = beta(Y,Z,X)
@ B-freq = 0.015400  C-freq = 0.015400     beta(Z;X,Z) = beta(Z,Z,X)
@ B-freq = 0.000000  C-freq = 0.015400     beta(X;Y,Z) = beta(X,Z,Y)
@ B-freq = 0.000000  C-freq = 0.015400     beta(Y;Y,Z) = beta(Y,Z,Y)
@ B-freq = 0.000000  C-freq = 0.015400     beta(Z;Y,Z) = beta(Z,Z,Y)
@ B-freq = 0.015400  C-freq = 0.015400     beta(X;Y,Z) = beta(X,Z,Y)
@ B-freq = 0.015400  C-freq = 0.015400     beta(Y;Y,Z) = beta(Y,Z,Y)
@ B-freq = 0.015400  C-freq = 0.015400     beta(Z;Y,Z) = beta(Z,Z,Y)
@ B-freq = 0.000000  C-freq = 0.015400     beta(X;Z,Z) = beta(X,Z,Z)
@ B-freq = 0.000000  C-freq = 0.015400     beta(Y;Z,Z) = beta(Y,Z,Z)
@ B-freq = 0.000000  C-freq = 0.015400     beta(Z;Z,Z) = beta(Z,Z,Z)
@ B-freq = 0.015400  C-freq = 0.015400     beta(X;Z,Z) =     12.82578043
@ B-freq = 0.015400  C-freq = 0.015400     beta(Y;Z,Z) =    -29.53278233
@ B-freq = 0.015400  C-freq = 0.015400     beta(Z;Z,Z) =      0.00000000

  Total CPU  time used in RESPONSE: 15 minutes 47 seconds
  Total wall time used in RESPONSE: 15 minutes 52 seconds


                   .-------------------------------------------.
                   | End of Dynamic Property Section (RESPONS) |
                   `-------------------------------------------'

  Total CPU  time used in DALTON: 21 minutes 17 seconds
  Total wall time used in DALTON: 21 minutes 24 seconds

 
     Date and time (Linux)  : Tue May 27 14:35:42 2025
     Host name              : xm033                                   
