

     ************************************************************************
     *************** Dalton - An Electronic Structure Program ***************
     ************************************************************************

    This is output from DALTON release Dalton2020.0 (2020)
         ( Web site: http://daltonprogram.org )

   ----------------------------------------------------------------------------

    NOTE:
     
    Dalton is an experimental code for the evaluation of molecular
    properties using (MC)SCF, DFT, CI, and CC wave functions.
    The authors accept no responsibility for the performance of
    the code or for the correctness of the results.
     
    The code (in whole or part) is provided under a licence and
    is not to be reproduced for further distribution without
    the written permission of the authors or their representatives.
     
    See the home page "http://daltonprogram.org" for further information.
     
    If results obtained with this code are published,
    the appropriate citations would be both of:
     
       K. Aidas, C. Angeli, K. L. Bak, V. Bakken, R. Bast,
       L. Boman, O. Christiansen, R. Cimiraglia, S. Coriani,
       P. Dahle, E. K. Dalskov, U. Ekstroem,
       T. Enevoldsen, J. J. Eriksen, P. Ettenhuber, B. Fernandez,
       L. Ferrighi, H. Fliegl, L. Frediani, K. Hald, A. Halkier,
       C. Haettig, H. Heiberg, T. Helgaker, A. C. Hennum,
       H. Hettema, E. Hjertenaes, S. Hoest, I.-M. Hoeyvik,
       M. F. Iozzi, B. Jansik, H. J. Aa. Jensen, D. Jonsson,
       P. Joergensen, J. Kauczor, S. Kirpekar,
       T. Kjaergaard, W. Klopper, S. Knecht, R. Kobayashi, H. Koch,
       J. Kongsted, A. Krapp, K. Kristensen, A. Ligabue,
       O. B. Lutnaes, J. I. Melo, K. V. Mikkelsen, R. H. Myhre,
       C. Neiss, C. B. Nielsen, P. Norman, J. Olsen,
       J. M. H. Olsen, A. Osted, M. J. Packer, F. Pawlowski,
       T. B. Pedersen, P. F. Provasi, S. Reine, Z. Rinkevicius,
       T. A. Ruden, K. Ruud, V. Rybkin, P. Salek, C. C. M. Samson,
       A. Sanchez de Meras, T. Saue, S. P. A. Sauer,
       B. Schimmelpfennig, K. Sneskov, A. H. Steindal,
       K. O. Sylvester-Hvid, P. R. Taylor, A. M. Teale,
       E. I. Tellgren, D. P. Tew, A. J. Thorvaldsen, L. Thoegersen,
       O. Vahtras, M. A. Watson, D. J. D. Wilson, M. Ziolkowski
       and H. Agren,
       "The Dalton quantum chemistry program system",
       WIREs Comput. Mol. Sci. 2014, 4:269–284 (doi: 10.1002/wcms.1172)
     
    and
     
       Dalton, a molecular electronic structure program,
       Release Dalton2020.0 (2020), see http://daltonprogram.org
   ----------------------------------------------------------------------------

    Authors in alphabetical order (Major contribution(s) in parenthesis):

  Kestutis Aidas,           Vilnius University,           Lithuania   (QM/MM)
  Celestino Angeli,         University of Ferrara,        Italy       (NEVPT2)
  Keld L. Bak,              UNI-C,                        Denmark     (AOSOPPA, non-adiabatic coupling, magnetic properties)
  Vebjoern Bakken,          University of Oslo,           Norway      (DALTON; geometry optimizer, symmetry detection)
  Radovan Bast,             UiT The Arctic U. of Norway,  Norway      (DALTON installation and execution frameworks)
  Pablo Baudin,             University of Valencia,       Spain       (Cholesky excitation energies)
  Linus Boman,              NTNU,                         Norway      (Cholesky decomposition and subsystems)
  Bruno N. Cabral Tenorio,  Technical Univ. of Denmark,   Denmark     (Lanczos-based CC methods)
  Ove Christiansen,         Aarhus University,            Denmark     (CC module)
  Renzo Cimiraglia,         University of Ferrara,        Italy       (NEVPT2)
  Sonia Coriani,            Technical Univ. of Denmark,   Denmark     (CC and RESPONS modules)
  Janusz Cukras,            University of Warsaw,         Poland      (MChD in RESPONS)
  Paal Dahle,               University of Oslo,           Norway      (Parallelization)
  Erik K. Dalskov,          UNI-C,                        Denmark     (SOPPA)
  Thomas Enevoldsen,        Univ. of Southern Denmark,    Denmark     (SOPPA)
  Janus J. Eriksen,         Aarhus University,            Denmark     (Polarizable embedding, TDA)
  Rasmus Faber,             Technical Univ. of Denmark,   Denmark     (Vib.avg. NMR w. SOPPA, parallel AO-SOPPA, CVS-CC and EOMCC)
  Tobias Fahleson,          KTH Stockholm,                Sweden      (Damped cubic response)
  Berta Fernandez,          U. of Santiago de Compostela, Spain       (Doublet spin, ESR in RESPONS)
  Lara Ferrighi,            Aarhus University,            Denmark     (PCM Cubic response)
  Heike Fliegl,             University of Oslo,           Norway      (CCSD(R12))
  Luca Frediani,            UiT The Arctic U. of Norway,  Norway      (PCM)
  Emmanuel Fromager,        Univ. Strasbourg,             France      (MC-srDFT)
  Bin Gao,                  UiT The Arctic U. of Norway,  Norway      (Gen1Int library)
  Andre S. P. Gomes,        CNRS/Universite de Lille,     France      (Frozen density embedding)
  Christof Haettig,         Ruhr-University Bochum,       Germany     (CC module)
  Kasper Hald,              Aarhus University,            Denmark     (CC module)
  Asger Halkier,            Aarhus University,            Denmark     (CC module)
  Frederik Beyer Hansen,    University of Copenhagen,     Denmark     (Parallel AO-SOPPA)
  Erik D. Hedegaard,        Univ. of Southern Denmark,    Denmark     (Polarizable embedding, QM/MM, and MC-srDFT)
  Hanne Heiberg,            University of Oslo,           Norway      (Geometry analysis, selected one-electron integrals)
  Trygve Helgaker,          University of Oslo,           Norway      (DALTON; ABACUS, ERI, DFT modules, London, and much more)
  Alf Christian Hennum,     University of Oslo,           Norway      (Parity violation)
  Hinne Hettema,            University of Auckland,       New Zealand (Quadratic response in RESPONS; SIRIUS supersymmetry)
  Eirik Hjertenaes,         NTNU,                         Norway      (Cholesky decomposition)
  Pi A. B. Haase,           University of Copenhagen,     Denmark     (Triplet AO-SOPPA)
  Maria Francesca Iozzi,    University of Oslo,           Norway      (RPA)
  Christoph Jacob           TU Braunschweig               Germany     (Frozen density embedding)
  Brano Jansik              Technical Univ. of Ostrava    Czech Rep.  (DFT cubic response)
  Hans Joergen Aa. Jensen,  Univ. of Southern Denmark,    Denmark     (DALTON; SIRIUS, RESPONS, ABACUS, MC-srDFT, and much more)
  Dan Jonsson,              UiT The Arctic U. of Norway,  Norway      (Cubic response in RESPONS module)
  Poul Joergensen,          Aarhus University,            Denmark     (RESPONS, ABACUS, and CC modules)
  Maciej Kaminski,          University of Warsaw,         Poland      (CPPh in RESPONS)
  Joanna Kauczor,           Linkoeping University,        Sweden      (Complex polarization propagator (CPP) module)
  Sheela Kirpekar,          Univ. of Southern Denmark,    Denmark     (Mass-velocity & Darwin integrals)
  Erik Kjellgren,           Univ. of Southern Denmark,    Denmark     (MC-srDFT)
  Wim Klopper,              KIT Karlsruhe,                Germany     (R12 code in CC, SIRIUS, and ABACUS modules)
  Stefan Knecht,            ETH Zurich,                   Switzerland (Parallel CI and MCSCF, MC-srDFT)
  Rika Kobayashi,           Australian National Univ.,    Australia   (DIIS in CC, London in MCSCF)
  Henrik Koch,              NTNU,                         Norway      (CC module, Cholesky decomposition)
  Jacob Kongsted,           Univ. of Southern Denmark,    Denmark     (Polarizable embedding, polarizable density embedding, QM/MM)
  Andrea Ligabue,           University of Modena,         Italy       (CTOCD, AOSOPPA)
  Nanna H. List             Univ. of Southern Denmark,    Denmark     (Polarizable embedding)
  Ola B. Lutnaes,           University of Oslo,           Norway      (DFT Hessian)
  Juan I. Melo,             University of Buenos Aires,   Argentina   (LRESC, Relativistic Effects on NMR Shieldings)
  Kurt V. Mikkelsen,        University of Copenhagen,     Denmark     (MC-SCRF and QM/MM)
  Rolf H. Myhre,            NTNU,                         Norway      (Subsystems and CC3)
  Christian Neiss,          Univ. Erlangen-Nuernberg,     Germany     (CCSD(R12))
  Christian B. Nielsen,     University of Copenhagen,     Denmark     (QM/MM)
  Patrick Norman,           KTH Stockholm,                Sweden      (Cubic response and complex frequency response in RESPONS)
  Jeppe Olsen,              Aarhus University,            Denmark     (SIRIUS CI/density modules)
  Jogvan Magnus H. Olsen,   Aarhus University,            Denmark     (Polarizable embedding and polarizable density embedding)
  Anders Osted,             Copenhagen University,        Denmark     (QM/MM)
  Martin J. Packer,         University of Sheffield,      UK          (SOPPA)
  Filip Pawlowski,          Kazimierz Wielki University,  Poland      (CC3)
  Morten N. Pedersen,       Univ. of Southern Denmark,    Denmark     (Polarizable embedding)
  Thomas B. Pedersen,       University of Oslo,           Norway      (Cholesky decomposition)
  Patricio F. Provasi,      University of Northeastern,   Argentina   (Analysis of coupling constants in localized orbitals)
  Peter Reinholdt,          Univ. of Southern Denmark,    Denmark     (Polarizable embedding and polarizable density embedding)
  Zilvinas Rinkevicius,     KTH Stockholm,                Sweden      (open-shell DFT, ESR)
  Elias Rudberg,            KTH Stockholm,                Sweden      (DFT grid and basis info)
  Torgeir A. Ruden,         University of Oslo,           Norway      (Numerical derivatives in ABACUS)
  Kenneth Ruud,             UiT The Arctic U. of Norway,  Norway      (DALTON; ABACUS magnetic properties and much more)
  Pawel Salek,              KTH Stockholm,                Sweden      (DALTON; DFT code)
  Claire C. M. Samson       University of Karlsruhe       Germany     (Boys localization, r12 integrals in ERI)
  Alfredo Sanchez de Meras, University of Valencia,       Spain       (CC module, Cholesky decomposition)
  Trond Saue,               Paul Sabatier University,     France      (direct Fock matrix construction)
  Stephan P. A. Sauer,      University of Copenhagen,     Denmark     (SOPPA(CCSD), SOPPA prop., AOSOPPA, vibrational g-factors)
  Bernd Schimmelpfennig,    Forschungszentrum Karlsruhe,  Germany     (AMFI module)
  Anna K. Schnack-Petersen, University of Copenhagen,     Denmark     (RPA(D) and HRPA(D) properties in AOSOPPA)
  Kristian Sneskov,         Aarhus University,            Denmark     (Polarizable embedding, QM/MM)
  Arnfinn H. Steindal,      UiT The Arctic U. of Norway,  Norway      (parallel QM/MM, polarizable embedding)
  Casper Steinmann,         Aalborg University,           Denmark     (QFIT, polarizable embedding)
  K. O. Sylvester-Hvid,     University of Copenhagen,     Denmark     (MC-SCRF)
  Peter R. Taylor,          VLSCI/Univ. of Melbourne,     Australia   (Symmetry handling ABACUS, integral transformation)
  Andrew M. Teale,          University of Nottingham,     England     (DFT-AC, DFT-D)
  David P. Tew,             University of Bristol,        England     (CCSD(R12))
  Julien Toulouse,          Sorbonne Univ.,               France      (MC-srDFT)
  Olav Vahtras,             KTH Stockholm,                Sweden      (Triplet response, spin-orbit, ESR, TDDFT, open-shell DFT)
  Lucas Visscher,           Vrije Universiteit Amsterdam, Netherlands (Frozen density embedding)
  David J. Wilson,          La Trobe University,          Australia   (DFT Hessian and DFT magnetizabilities)
  Hans Agren,               KTH Stockholm,                Sweden      (SIRIUS module, RESPONS, MC-SCRF solvation)
 --------------------------------------------------------------------------------

     Date and time (Linux)  : Thu May 29 21:09:25 2025
     Host name              : xm009                                   

 * Work memory size             :   131072000 = 1000.00 megabytes.

 * Directories for basis set searches:
   1) /gpfs/projects/rjh/adrian/summer2025/beta_projects/raw_data/NLO/dalton/hf/n14/dipole
   2) /gpfs/projects/rjh/adrian/dalton/build/basis


Compilation information
-----------------------

 Who compiled             | ahurtado
 Host                     | milan2
 System                   | Linux-5.14.0-427.42.1.el9_4.x86_64
 CMake generator          | Unix Makefiles
 Processor                | x86_64
 64-bit integers          | OFF
 MPI                      | ON
 Fortran compiler         | /gpfs/software/openmpi/milan/gcc13.2/4.1.6/bin/mpi
                          | f90
 Fortran compiler version | GNU Fortran (GCC) 13.2.0
 C compiler               | /gpfs/software/openmpi/milan/gcc13.2/4.1.6/bin/mpi
                          | cc
 C compiler version       | gcc (GCC) 13.2.0
 C++ compiler             | /gpfs/software/openmpi/milan/gcc13.2/4.1.6/bin/mpi
                          | cxx
 C++ compiler version     | unknown
 BLAS                     | /gpfs/software/intel/oneAPI/2024_2/mkl/2024.2/lib/
                          | intel64/libmkl_gf_lp64.so;/gpfs/software/intel/one
                          | API/2024_2/mkl/2024.2/lib/intel64/libmkl_sequentia
                          | l.so;/gpfs/software/intel/oneAPI/2024_2/mkl/2024.2
                          | /lib/intel64/libmkl_core.so;/usr/lib64/libpthread.
                          | a;/usr/lib64/libm.so
 LAPACK                   | /gpfs/software/intel/oneAPI/2024_2/mkl/2024.2/lib/
                          | intel64/libmkl_lapack95_lp64.a;/gpfs/software/inte
                          | l/oneAPI/2024_2/mkl/2024.2/lib/intel64/libmkl_gf_l
                          | p64.so
 Static linking           | OFF
 Last Git revision        | 66052b3af5ea7225e31178bf9a8b031913c72190
 Git branch               | (HEAD detached at Dalton2020.0)
 Configuration time       | 2025-04-10 16:02:31.569498

 * MPI parallel run using 576 processes.


   Content of the .dal input file
 ----------------------------------

**DALTON INPUT
.RUN RESPONSE
.DIRECT
**WAVE FUNCTIONS
.HF
**PROPERTIES
**RESPONSE
*QUADRA
.DIPLEN
.FREQUENCIES
2
0.0 0.0154
**END OF DALTON INPUT


   Content of the .mol file
 ----------------------------

BASIS
d-aug-cc-pVDZ
blah
blah
Atomtype=4 Angstrom Charge=0 Nosymmetry
Charge=6 Atoms=28
C_a -0.28844299851542915 -0.8333669989446016 0.0
C_b 0.0 0.513405999382555 0.0
C_c -0.9964850009912315 1.5483060008450387 0.0
C_d -0.7046519980123525 2.8944489978275767 0.0
C_e -1.6978069979440518 3.9325589988335286 0.0
C_f -1.401586999469732 5.277698998622735 0.0
C_g -2.3903829973804354 6.3202269996169 0.0
C_h -2.0880589979905304 7.663780002243079 0.0
C_i -3.0707240016561324 8.712722001454614 0.0
C_j -2.7595039988858816 10.053717998631747 0.0
C_k -3.7329849997660025 11.112427000453527 0.0
C_l -3.4078599979347723 12.449051999162299 0.0
C_m -4.3658840023716 13.523947997389493 0.0
C_n -4.015104002524055 14.851942999518178 0.0
C_o -4.941639999678566 15.956107000793486 0.0
C_p -4.523213001529069 17.260270999374455 0.0
C_q 2.6190920013877177 -10.334388997912924 0.0
C_r 2.887902001501851 -8.98713899924807 0.0
C_s 1.8750640012142197 -7.964548998524114 0.0
C_t 2.1522499981390895 -6.6171670018958295 0.0
C_u 1.1458680021558094 -5.590125001547874 0.0
C_v 1.4278950021640144 -4.242783000133173 0.0
C_w 0.42550699763712635 -3.212855999717453 0.0
C_x 0.7109210016739967 -1.865706999815027 0.0
C_y 4.207937998461808 -15.01867000072512 0.0
C_z 4.443043998222679 -13.686408999470215 0.0
C_{ 3.3893969997627242 -12.6951819984961 0.0
C_| 3.643770997943831 -11.348766999135504 0.0
Charge=7 Atoms=2
N_a -5.328309999186019 18.367441002378516 0.0
N_b 5.307200998541634 -15.977827000028855 0.0
Charge=8 Atoms=2
O_a 4.974188001831576 -17.169057998888345 0.0
O_b 6.465698000042107 -15.55607800197925 0.0
Charge=1 Atoms=30
H_a -1.343432000965187 -1.144647999971926 0.0
H_b 1.0555990008958134 0.8233510025814174 0.0
H_c -2.0523080026003218 1.2397869979346297 0.0
H_d 0.3518830009501499 3.2013559999517542 0.0
H_e -2.7546190000092516 3.627419998937288 0.0
H_f -0.3438389993378436 5.580639002620036 0.0
H_g -3.44849799778324 6.019652999846225 0.0
H_h -1.0286230019331861 7.961137001455789 0.0
H_i -4.130647999645384 8.418664998953592 0.0
H_j -1.6975959991148413 10.342746997406726 0.0
H_k -4.7955350026208 10.82825500178896 0.0
H_l -2.3419689977180056 12.724278997928584 0.0
H_m -5.432631999789275 13.256996001963287 0.0
H_n -2.9421349978177433 15.099758999779349 0.0
H_o -6.017821999071359 15.735296998551014 0.0
H_p -3.4484359993812377 17.4811800000895 0.0
H_q -6.334902999290283 18.275814000101636 0.0
H_r -4.935636997525409 19.29587299914468 0.0
H_s 1.5708300001836668 -10.66592399738181 0.0
H_t 3.9385489991026192 -8.661134002174357 0.0
H_u 0.8236899987943447 -8.286960998756365 0.0
H_v 3.2049430012154203 -6.297746001218411 0.0
H_w 0.0927920017814842 -5.907411999871368 0.0
H_x 2.481794000103462 -3.92730299910627 0.0
H_y -0.6286399992021018 -3.5268299994451935 0.0
H_z 1.7657010002926283 -1.5531029975515345 0.0
H_{ 3.22804199921939 -15.49986499916951 0.0
H_| 5.4877840022916216 -13.352874001192463 0.0
H_} 2.347492999243608 -13.04321000167601 0.0
H_~ 4.690929998045277 -11.012431002380412 0.0


       *******************************************************************
       *********** Output from DALTON general input processing ***********
       *******************************************************************

 --------------------------------------------------------------------------------
   Overall default print level:    0
   Print level for DALTON.STAT:    1

    Parallel calculation using MPI
    AO-direct calculation (in sections where implemented)
    HERMIT 1- and 2-electron integral sections will be executed
    "Old" integral transformation used (limited to max 255 basis functions)
    Wave function sections will be executed (SIRIUS module)
    Dynamic molecular response properties section will be executed (RESPONSE module)
 --------------------------------------------------------------------------------


   ****************************************************************************
   *************** Output of molecule and basis set information ***************
   ****************************************************************************


    The two title cards from your ".mol" input:
    ------------------------------------------------------------------------
 1: blah                                                                    
 2: blah                                                                    
    ------------------------------------------------------------------------

  Coordinates are entered in Angstrom and converted to atomic units.
          - Conversion factor : 1 bohr = 0.52917721 A

  Atomic type no.    1
  --------------------
  Nuclear charge:   6.00000
  Number of symmetry independent centers:   28
  Number of basis sets to read;    2
  Basis set file used for this atomic type with Z =   6 :
     "/gpfs/projects/rjh/adrian/dalton/build/basis/aug-cc-pVDZ"

  Atomic type no.    2
  --------------------
  Nuclear charge:   7.00000
  Number of symmetry independent centers:    2
  Number of basis sets to read;    2
  Basis set file used for this atomic type with Z =   7 :
     "/gpfs/projects/rjh/adrian/dalton/build/basis/aug-cc-pVDZ"

  Atomic type no.    3
  --------------------
  Nuclear charge:   8.00000
  Number of symmetry independent centers:    2
  Number of basis sets to read;    2
  Basis set file used for this atomic type with Z =   8 :
     "/gpfs/projects/rjh/adrian/dalton/build/basis/aug-cc-pVDZ"

  Atomic type no.    4
  --------------------
  Nuclear charge:   1.00000
  Number of symmetry independent centers:   30
  Number of basis sets to read;    2
  Basis set file used for this atomic type with Z =   1 :
     "/gpfs/projects/rjh/adrian/dalton/build/basis/aug-cc-pVDZ"


                         SYMGRP: Point group information
                         -------------------------------

@    Point group: C1 


                                 Isotopic Masses
                                 ---------------

                           C_a        12.000000
                           C_b        12.000000
                           C_c        12.000000
                           C_d        12.000000
                           C_e        12.000000
                           C_f        12.000000
                           C_g        12.000000
                           C_h        12.000000
                           C_i        12.000000
                           C_j        12.000000
                           C_k        12.000000
                           C_l        12.000000
                           C_m        12.000000
                           C_n        12.000000
                           C_o        12.000000
                           C_p        12.000000
                           C_q        12.000000
                           C_r        12.000000
                           C_s        12.000000
                           C_t        12.000000
                           C_u        12.000000
                           C_v        12.000000
                           C_w        12.000000
                           C_x        12.000000
                           C_y        12.000000
                           C_z        12.000000
                           C_{        12.000000
                           C_|        12.000000
                           N_a        14.003074
                           N_b        14.003074
                           O_a        15.994915
                           O_b        15.994915
                           H_a         1.007825
                           H_b         1.007825
                           H_c         1.007825
                           H_d         1.007825
                           H_e         1.007825
                           H_f         1.007825
                           H_g         1.007825
                           H_h         1.007825
                           H_i         1.007825
                           H_j         1.007825
                           H_k         1.007825
                           H_l         1.007825
                           H_m         1.007825
                           H_n         1.007825
                           H_o         1.007825
                           H_p         1.007825
                           H_q         1.007825
                           H_r         1.007825
                           H_s         1.007825
                           H_t         1.007825
                           H_u         1.007825
                           H_v         1.007825
                           H_w         1.007825
                           H_x         1.007825
                           H_y         1.007825
                           H_z         1.007825
                           H_{         1.007825
                           H_|         1.007825
                           H_}         1.007825
                           H_~         1.007825

                       Total mass:   426.230728 amu
                       Natural abundance:  72.150 %

 Center-of-mass coordinates (a.u.):    0.099320   -0.294099    0.000000
 Center-of-mass coordinates (Angs):    0.052558   -0.155630    0.000000


  Atoms and basis sets
  --------------------

  Number of atom types :    4
  Total number of atoms:   62

  Basis set used is "d-aug-cc-pVDZ" from the basis set library.

  label    atoms   charge   prim   cont     basis
  ----------------------------------------------------------------------
  C_         28    6.0000    44    32      [11s6p3d|5s4p3d]                                   
  N_          2    7.0000    44    32      [11s6p3d|5s4p3d]                                   
  O_          2    8.0000    44    32      [11s6p3d|5s4p3d]                                   
  H_         30    1.0000    15    13      [6s3p|4s3p]                                        
  ----------------------------------------------------------------------
  total:     62  228.0000  1858  1414
  ----------------------------------------------------------------------
  Spherical harmonic basis used.

  Threshold for neglecting AO integrals:  1.00D-12

  Max    interatomic separation is   37.7875 Angstrom (   71.4080 Bohr)
  between atoms   50 and   31, "H_r   " and "O_a   ".

  Min HX interatomic separation is    1.0081 Angstrom (    1.9050 Bohr)

  Min YX interatomic separation is    1.2329 Angstrom (    2.3298 Bohr)


  Bond distances (Angstrom):
  --------------------------

                  atom 1     atom 2       distance
                  ------     ------       --------
  bond distance:  C_b        C_a          1.377315
  bond distance:  C_c        C_b          1.436663
  bond distance:  C_d        C_c          1.377413
  bond distance:  C_e        C_d          1.436673
  bond distance:  C_f        C_e          1.377370
  bond distance:  C_g        C_f          1.436865
  bond distance:  C_h        C_g          1.377147
  bond distance:  C_i        C_h          1.437327
  bond distance:  C_j        C_i          1.376637
  bond distance:  C_k        C_j          1.438239
  bond distance:  C_l        C_k          1.375599
  bond distance:  C_m        C_l          1.439865
  bond distance:  C_n        C_m          1.373542
  bond distance:  C_o        C_n          1.441405
  bond distance:  C_p        C_o          1.369644
  bond distance:  C_r        C_q          1.373805
  bond distance:  C_s        C_r          1.439281
  bond distance:  C_t        C_s          1.375598
  bond distance:  C_u        C_t          1.437922
  bond distance:  C_v        C_u          1.376543
  bond distance:  C_w        C_v          1.437196
  bond distance:  C_x        C_a          1.436821
  bond distance:  C_x        C_w          1.377052
  bond distance:  C_z        C_y          1.352847
  bond distance:  C_{        C_z          1.446618
  bond distance:  C_|        C_q          1.441849
  bond distance:  C_|        C_{          1.370233
  bond distance:  N_a        C_p          1.368944
  bond distance:  N_b        C_y          1.458890
  bond distance:  O_a        N_b          1.236903
  bond distance:  O_b        N_b          1.232878
  bond distance:  H_a        C_a          1.099953
  bond distance:  H_b        C_b          1.100161
  bond distance:  H_c        C_c          1.099976
  bond distance:  H_d        C_d          1.100208
  bond distance:  H_e        C_e          1.099982
  bond distance:  H_f        C_f          1.100274
  bond distance:  H_g        C_g          1.099978
  bond distance:  H_h        C_h          1.100375
  bond distance:  H_i        C_i          1.099958
  bond distance:  H_j        C_j          1.100539
  bond distance:  H_k        C_k          1.099894
  bond distance:  H_l        C_l          1.100851
  bond distance:  H_m        C_m          1.099643
  bond distance:  H_n        C_n          1.101215
  bond distance:  H_o        C_o          1.098601
  bond distance:  H_p        C_p          1.097245
  bond distance:  H_q        N_a          1.010755
  bond distance:  H_r        N_a          1.008057
  bond distance:  H_s        C_q          1.099440
  bond distance:  H_t        C_r          1.100063
  bond distance:  H_u        C_s          1.099698
  bond distance:  H_v        C_t          1.100087
  bond distance:  H_w        C_u          1.099836
  bond distance:  H_x        C_v          1.100105
  bond distance:  H_y        C_w          1.099912
  bond distance:  H_z        C_x          1.100128
  bond distance:  H_{        C_y          1.091671
  bond distance:  H_|        C_z          1.096689
  bond distance:  H_}        C_{          1.098493
  bond distance:  H_~        C_|          1.099847


  Bond angles (degrees):
  ----------------------

                  atom 1     atom 2     atom 3         angle
                  ------     ------     ------         -----
  bond angle:     C_b        C_a        C_x          123.841
  bond angle:     C_b        C_a        H_a          118.528
  bond angle:     C_x        C_a        H_a          117.631
  bond angle:     C_a        C_b        C_c          123.995
  bond angle:     C_a        C_b        H_b          118.452
  bond angle:     C_c        C_b        H_b          117.553
  bond angle:     C_b        C_c        C_d          123.851
  bond angle:     C_b        C_c        H_c          117.628
  bond angle:     C_d        C_c        H_c          118.521
  bond angle:     C_c        C_d        C_e          124.036
  bond angle:     C_c        C_d        H_d          118.430
  bond angle:     C_e        C_d        H_d          117.534
  bond angle:     C_d        C_e        C_f          123.849
  bond angle:     C_d        C_e        H_e          117.627
  bond angle:     C_f        C_e        H_e          118.524
  bond angle:     C_e        C_f        C_g          124.096
  bond angle:     C_e        C_f        H_f          118.401
  bond angle:     C_g        C_f        H_f          117.503
  bond angle:     C_f        C_g        C_h          123.834
  bond angle:     C_f        C_g        H_g          117.627
  bond angle:     C_h        C_g        H_g          118.539
  bond angle:     C_g        C_h        C_i          124.187
  bond angle:     C_g        C_h        H_h          118.359
  bond angle:     C_i        C_h        H_h          117.453
  bond angle:     C_h        C_i        C_j          123.803
  bond angle:     C_h        C_i        H_i          117.626
  bond angle:     C_j        C_i        H_i          118.572
  bond angle:     C_i        C_j        C_k          124.336
  bond angle:     C_i        C_j        H_j          118.292
  bond angle:     C_k        C_j        H_j          117.373
  bond angle:     C_j        C_k        C_l          123.730
  bond angle:     C_j        C_k        H_k          117.626
  bond angle:     C_l        C_k        H_k          118.644
  bond angle:     C_k        C_l        C_m          124.619
  bond angle:     C_k        C_l        H_l          118.150
  bond angle:     C_m        C_l        H_l          117.231
  bond angle:     C_l        C_m        C_n          123.494
  bond angle:     C_l        C_m        H_m          117.660
  bond angle:     C_n        C_m        H_m          118.846
  bond angle:     C_m        C_n        C_o          125.203
  bond angle:     C_m        C_n        H_n          117.801
  bond angle:     C_o        C_n        H_n          116.996
  bond angle:     C_n        C_o        C_p          122.211
  bond angle:     C_n        C_o        H_o          118.406
  bond angle:     C_p        C_o        H_o          119.383
  bond angle:     C_o        C_p        N_a          126.188
  bond angle:     C_o        C_p        H_p          119.403
  bond angle:     N_a        C_p        H_p          114.409
  bond angle:     C_r        C_q        C_|          123.427
  bond angle:     C_r        C_q        H_s          118.834
  bond angle:     C_|        C_q        H_s          117.739
  bond angle:     C_q        C_r        C_s          123.991
  bond angle:     C_q        C_r        H_t          118.522
  bond angle:     C_s        C_r        H_t          117.487
  bond angle:     C_r        C_s        C_t          123.650
  bond angle:     C_r        C_s        H_u          117.677
  bond angle:     C_t        C_s        H_u          118.673
  bond angle:     C_s        C_t        C_u          123.957
  bond angle:     C_s        C_t        H_v          118.504
  bond angle:     C_u        C_t        H_v          117.538
  bond angle:     C_t        C_u        C_v          123.760
  bond angle:     C_t        C_u        H_w          117.651
  bond angle:     C_v        C_u        H_w          118.590
  bond angle:     C_u        C_v        C_w          123.954
  bond angle:     C_u        C_v        H_x          118.487
  bond angle:     C_w        C_v        H_x          117.559
  bond angle:     C_v        C_w        C_x          123.814
  bond angle:     C_v        C_w        H_y          117.638
  bond angle:     C_x        C_w        H_y          118.548
  bond angle:     C_a        C_x        C_w          123.968
  bond angle:     C_a        C_x        H_z          117.562
  bond angle:     C_w        C_x        H_z          118.470
  bond angle:     C_z        C_y        N_b          121.098
  bond angle:     C_z        C_y        H_{          126.162
  bond angle:     N_b        C_y        H_{          112.740
  bond angle:     C_y        C_z        C_{          123.244
  bond angle:     C_y        C_z        H_|          117.714
  bond angle:     C_{        C_z        H_|          119.043
  bond angle:     C_z        C_{        C_|          122.553
  bond angle:     C_z        C_{        H_}          118.278
  bond angle:     C_|        C_{        H_}          119.170
  bond angle:     C_q        C_|        C_{          124.012
  bond angle:     C_q        C_|        H_~          117.483
  bond angle:     C_{        C_|        H_~          118.505
  bond angle:     C_p        N_a        H_q          120.822
  bond angle:     C_p        N_a        H_r          121.051
  bond angle:     H_q        N_a        H_r          118.127
  bond angle:     C_y        N_b        O_a          115.488
  bond angle:     C_y        N_b        O_b          118.890
  bond angle:     O_a        N_b        O_b          125.622




 Principal moments of inertia (u*A**2) and principal axes
 --------------------------------------------------------

   IA     156.113231         -0.291173    0.956670    0.000000
   IB   56541.396409          0.956670    0.291173    0.000000
   IC   56697.509640          0.000000    0.000000    1.000000


 Rotational constants
 --------------------

@    The molecule is planar.

               A                   B                   C

           3237.2593              8.9382              8.9136 MHz
            0.107983            0.000298            0.000297 cm-1


@  Nuclear repulsion energy : 2066.436409399690 Hartree


                     .---------------------------------------.
                     | Starting in Integral Section (HERMIT) |
                     `---------------------------------------'



 ***************************************************************************************
 ****************** Output from **INTEGRALS input processing (HERMIT) ******************
 ***************************************************************************************


 - Using defaults, no **INTEGRALS input found

 Default print level:        1

 Calculation of one-electron Hamiltonian integrals.

 Center of mass  (bohr):      0.099320351442     -0.294098929890      0.000000000000
 Operator center (bohr):      0.000000000000      0.000000000000      0.000000000000
 Gauge origin    (bohr):      0.000000000000      0.000000000000      0.000000000000
 Dipole origin   (bohr):      0.000000000000      0.000000000000      0.000000000000


     ************************************************************************
     ************************** Output from HERINT **************************
     ************************************************************************



                      Nuclear contribution to dipole moments
                      --------------------------------------

                 au               Debye          C m (/(10**-30)

      x     -0.00000557        -0.00001416        -0.00004722
      y      0.00000189         0.00000480         0.00001602
      z      0.00000000         0.00000000         0.00000000


  Time used in ONEDRV     is       4.76 seconds
  Time used in HUCKEL     is       0.97 seconds
  Time used in OVERLAP    is       0.52 seconds
  Time used in POPOVLP    is       1.01 seconds
  Time used in R2         is       0.62 seconds
  Time used in R4         is       0.72 seconds
  Time used in DIPLEN     is       0.68 seconds
  Time used in QUADRUP    is       1.28 seconds
  Time used in KINENE     is       0.88 seconds
  Time used in GABGEN     is       3.88 seconds
  Total CPU  time used in HERMIT:  15.33 seconds
  Total wall time used in HERMIT:  15.48 seconds


                        .----------------------------------.
                        | End of Integral Section (HERMIT) |
                        `----------------------------------'



                   .--------------------------------------------.
                   | Starting in Wave Function Section (SIRIUS) |
                   `--------------------------------------------'



@ Primary orbitals are deleted during canonical orthonormalization
@   because of detected numerical linear dependence or too large coefficients.
@ Eigenvalue threshold for num. lin. dep. =  1.00D-06

@ 113 MO components are deleted in symmetry    1
 Overlap eigenvalues of the deleted orbitals:
  9.16D-07  8.93D-07  8.60D-07  8.26D-07  7.67D-07
  7.49D-07  6.84D-07  6.58D-07  5.95D-07  5.80D-07
  5.72D-07  5.27D-07  5.02D-07  4.66D-07  4.50D-07
  4.09D-07  3.94D-07  3.68D-07  3.56D-07  3.45D-07
  3.43D-07  3.17D-07  3.06D-07  2.84D-07  2.68D-07
  2.62D-07  2.57D-07  2.54D-07  2.40D-07  2.00D-07
  1.93D-07  1.87D-07  1.79D-07  1.74D-07  1.70D-07
  1.61D-07  1.56D-07  1.45D-07  1.36D-07  1.28D-07
  1.26D-07  1.19D-07  1.14D-07  1.07D-07  9.68D-08
  9.23D-08  8.67D-08  8.13D-08  7.36D-08  6.75D-08
  6.10D-08  5.01D-08  4.73D-08  4.33D-08  4.29D-08
  3.77D-08  3.51D-08  3.04D-08  2.92D-08  2.86D-08
  2.78D-08  2.64D-08  2.48D-08  2.31D-08  2.08D-08
  2.03D-08  1.79D-08  1.76D-08  1.67D-08  1.61D-08
  1.53D-08  1.44D-08  1.42D-08  1.32D-08  1.13D-08
  1.08D-08  9.98D-09  9.79D-09  9.41D-09  8.81D-09
  7.81D-09  7.42D-09  6.83D-09  6.61D-09  6.48D-09
  5.75D-09  5.34D-09  5.04D-09  4.85D-09  4.42D-09
  4.28D-09  3.22D-09  2.80D-09  2.60D-09  2.50D-09
  2.23D-09  2.16D-09  2.03D-09  1.84D-09  1.67D-09
  1.64D-09  1.11D-09  9.76D-10  9.13D-10  9.02D-10
  3.59D-10  3.05D-10  2.60D-10  2.14D-10  6.79D-11
  6.55D-11  1.52D-11  1.15D-11

 Max MO coeff. of last deleted MO & limit:  2.09D+02  1.00D+03

WARNING: Orbitals have been deleted because of numerical
   linear dependence although not requested in input.

 *** Output from Huckel module :

     Using EWMO model:          T
     Using EHT  model:          F
     Number of Huckel orbitals each symmetry:  190

 EWMO - Energy Weighted Maximum Overlap - is a Huckel type method,
        which normally is better than Extended Huckel Theory.
 Reference: Linderberg and Ohrn, Propagators in Quantum Chemistry (Wiley, 1973)

 Huckel EWMO eigenvalues for symmetry :  1
          -20.684753     -20.683498     -15.677080     -15.674960     -11.359406
          -11.359388     -11.359195     -11.359128     -11.358947     -11.358817
          -11.358585     -11.357863     -11.356901     -11.355762     -11.354513
          -11.353227     -11.351984     -11.350907     -11.348641     -11.347949
          -11.347222     -11.346587     -11.346078     -11.345705     -11.345494
          -11.345479     -11.345405     -11.345374     -11.345272     -11.345267
          -11.345185     -11.345181      -1.964050      -1.792888      -1.790497
           -1.784612      -1.772821      -1.752825      -1.722704      -1.681420
           -1.629056      -1.566796      -1.497096      -1.446466      -1.415689
           -1.337896      -1.257016      -1.212071      -1.194734      -1.176047
           -1.165786      -1.128079      -1.099471      -1.081406      -1.038259
           -1.013446      -0.985710      -0.944104      -0.932695      -0.882137
           -0.879525      -0.852027      -0.836630      -0.827596      -0.811190
           -0.784661      -0.770871      -0.749402      -0.749099      -0.739617
           -0.721710      -0.696292      -0.689310      -0.675369      -0.665207
           -0.653657      -0.644933      -0.624632      -0.616108      -0.611003
           -0.594762      -0.586055      -0.576994      -0.571834      -0.558907
           -0.540404      -0.539149      -0.538046      -0.522327      -0.515940
           -0.501952      -0.501428      -0.497126      -0.494654      -0.493104
           -0.489649      -0.487983      -0.483857      -0.482895      -0.478115
           -0.477885      -0.474366      -0.474229      -0.466493      -0.464847
           -0.436900      -0.433408      -0.410904      -0.403187      -0.389045
           -0.376158      -0.372526      -0.362199      -0.352624      -0.335966
           -0.307182      -0.288253      -0.271087      -0.255993      -0.242942
           -0.231828      -0.229151      -0.222511      -0.214829      -0.208612
           -0.203692      -0.200885      -0.199908      -0.197120      -0.195212
           -0.194101      -0.190600      -0.166732      -0.142708      -0.139031
           -0.135586      -0.133284      -0.131890      -0.131595      -0.131098
           -0.130468      -0.130219      -0.129870      -0.129786      -0.129301
           -0.129117      -0.129014      -0.128246      -0.128020      -0.127441
           -0.127026      -0.127006      -0.126505      -0.126190      -0.125967
           -0.125517      -0.125036      -0.124512      -0.124283      -0.123800
           -0.123613      -0.123193      -0.112844      -0.112230      -0.109492
           -0.108476      -0.105255      -0.104279      -0.101332      -0.100014
           -0.097422      -0.096028      -0.094258      -0.092742      -0.091519
           -0.090281      -0.089118      -0.088421      -0.087208      -0.086918
           -0.085847      -0.085677      -0.085017      -0.084548      -0.083457
           -0.082389      -0.081352      -0.080414      -0.079691      -0.079331

 **********************************************************************
 *SIRIUS* a direct, restricted step, second order MCSCF program       *
 **********************************************************************

 
     Date and time (Linux)  : Thu May 29 21:12:12 2025
     Host name              : xm009                                   

 Title lines from ".mol" input file:
     blah                                                                    
     blah                                                                    

 Print level on unit LUPRI =   2 is   0
 Print level on unit LUW4  =   2 is   5

@    Restricted, closed shell Hartree-Fock calculation.

@    Time-dependent Hartree-Fock calculation (random phase approximation).
 Fock matrices are calculated directly and in parallel without use of integrals on disk.

 Initial molecular orbitals are obtained according to
 ".MOSTART EWMO  " input option

     Wave function specification
     ============================
@    Wave function type        --- HF ---
@    Number of closed shell electrons         228
@    Number of electrons in active shells       0
@    Total charge of the molecule               0

@    Spin multiplicity and 2 M_S                1         0
@    Total number of symmetries                 1 (point group: C1 )
@    Reference state symmetry                   1 (irrep name : A  )

     Orbital specifications
     ======================
@    Abelian symmetry species          All |    1
@                                          |  A  
                                       --- |  ---
@    Occupied SCF orbitals             114 |  114
@    Secondary orbitals               1187 | 1187
@    Total number of orbitals         1301 | 1301
@    Number of basis functions        1414 | 1414

     Optimization information
     ========================
@    Number of configurations                 1
@    Number of orbital rotations         135318
     ------------------------------------------
@    Total number of variables           135319

     Maximum number of Fock   iterations      0
     Maximum number of DIIS   iterations     60
     Maximum number of QC-SCF iterations     60
     Threshold for SCF convergence     1.00D-05

    INFORMATION: Switched to "new" integral transformation (from 1988 ;-) )
    because more than 255 basis functions.


 ***********************************************
 ***** DIIS acceleration of SCF iterations *****
 ***********************************************

 C1-DIIS algorithm; max error vectors =    8

 Iter      Total energy        Error norm    Delta(E)  DIIS dim.
 -----------------------------------------------------------------------------
   1  Screening settings (-IFTHRS, JTDIIS, DIFDEN, times)  -10    1    T  2.89D+01  2.91D+01
@  1    -1331.42893784        8.04812D+00   -1.33D+03    1
      Virial theorem: -V/T =      2.013066
@    MULPOP   C_a     0.43; C_b     0.46; C_c     0.44; C_d     0.47; C_e     0.36; C_f     0.47; C_g     0.40; C_h     0.43; C_i     0.31; C_j     0.54; 
@             C_k     0.48; C_l     0.63; C_m     0.37; C_n     0.76; C_o     0.09; C_p     1.01; C_q     0.54; C_r     0.59; C_s     0.38; C_t     0.47; 
@             C_u     0.43; C_v     0.46; C_w     0.40; C_x     0.47; C_y     0.95; C_z     0.35; C_{     0.53; C_|     0.53; N_a    -0.34; N_b     0.76; 
@    MULPOP    dipole moment & components:     38.7373;      -12.9565     36.5062      0.0000
   1  Level shift: doubly occupied orbital energies shifted by -2.00D-01
 -----------------------------------------------------------------------------
   2  Screening settings (-IFTHRS, JTDIIS, DIFDEN, times)  -10    2    T  2.54D+01  2.55D+01
@  2    -1335.63075723        2.95173D+00   -4.20D+00    2
      Virial theorem: -V/T =      2.000852
@    MULPOP   C_a     0.74; C_b     0.71; C_c     0.87; C_d     0.61; C_e     0.55; C_f     0.86; C_g     0.82; C_h     0.75; C_i     0.52; C_j     0.90; 
@             C_k     0.95; C_l     0.98; C_m     0.38; C_n     0.76; C_o     0.95; C_p    -0.28; C_q     1.05; C_r     1.02; C_s     0.73; C_t     0.52; 
@             C_u     0.84; C_v     0.81; C_w     0.65; C_x     0.63; C_y     0.30; C_z     0.19; C_{     0.63; C_|     0.44; N_a     0.24; N_b     0.55; 
@    MULPOP    dipole moment & components:     12.5385;       -6.4444     10.7557      0.0000
   2  Level shift: doubly occupied orbital energies shifted by -1.00D-01
 -----------------------------------------------------------------------------
   3  Screening settings (-IFTHRS, JTDIIS, DIFDEN, times)  -10    3    T  2.50D+01  2.51D+01
@  3    -1336.14135168        1.05761D+00   -5.11D-01    3
      Virial theorem: -V/T =      2.001370
@    MULPOP   C_a     0.73; C_b     0.72; C_c     0.85; C_d     0.57; C_e     0.52; C_f     0.83; C_g     0.83; C_h     0.70; C_i     0.51; C_j     0.84; 
@             C_k     0.97; C_l     0.93; C_m     0.13; C_n     0.55; C_o     0.82; C_p    -0.25; C_q     1.05; C_r     1.02; C_s     0.77; C_t     0.47; 
@             C_u     0.80; C_v     0.79; C_w     0.65; C_x     0.59; C_y     0.59; C_z     0.05; C_{     0.50; C_|     0.25; N_a     0.17; N_b     0.63; 
@    MULPOP    dipole moment & components:     10.2121;       -6.3023      8.0354      0.0000
   3  Level shift: doubly occupied orbital energies shifted by -5.00D-02
 -----------------------------------------------------------------------------
   4  Screening settings (-IFTHRS, JTDIIS, DIFDEN, times)  -10    4    T  2.49D+01  2.50D+01
@  4    -1336.22123949        3.24472D-01   -7.99D-02    4
      Virial theorem: -V/T =      2.002721
@    MULPOP   C_a     0.75; C_b     0.77; C_c     0.88; C_d     0.58; C_e     0.52; C_f     0.82; C_g     0.83; C_h     0.65; C_i     0.50; C_j     0.83; 
@             C_k     0.97; C_l     0.87; C_m    -0.00; C_n     0.36; C_o     0.77; C_p    -0.29; C_q     1.08; C_r     1.04; C_s     0.76; C_t     0.47; 
@             C_u     0.77; C_v     0.77; C_w     0.65; C_x     0.60; C_y     0.41; C_z    -0.02; C_{     0.39; C_|     0.12; N_a     0.16; N_b     0.42; 
@    MULPOP    dipole moment & components:      8.6404;       -6.1339      6.0854      0.0000
   4  Level shift: doubly occupied orbital energies shifted by -2.50D-02
 -----------------------------------------------------------------------------
   5  Screening settings (-IFTHRS, JTDIIS, DIFDEN, times)  -10    5    T  2.56D+01  2.58D+01
@  5    -1336.23879285        1.85209D-01   -1.76D-02    5
      Virial theorem: -V/T =      2.002179
@    MULPOP   C_a     0.87; C_b     0.93; C_c     1.05; C_d     0.75; C_e     0.63; C_f     0.88; C_g     0.87; C_h     0.68; C_i     0.51; C_j     0.92; 
@             C_k     1.13; C_l     0.97; C_m    -0.31; C_n    -0.15; C_o     0.51; C_p    -0.45; C_q     1.37; C_r     1.22; C_s     0.80; C_t     0.52; 
@             C_u     0.79; C_v     0.79; C_w     0.77; C_x     0.74; C_y     0.22; C_z    -0.34; C_{    -0.00; C_|    -0.29; N_a     0.15; N_b     0.42; 
@    MULPOP    dipole moment & components:      6.6621;       -6.1060      2.6645      0.0000
   5  Level shift: doubly occupied orbital energies shifted by -2.50D-02
 -----------------------------------------------------------------------------
   6  Screening settings (-IFTHRS, JTDIIS, DIFDEN, times)  -14    6    F  2.90D+01  2.92D+01
@  6    -14671.0906232        7.33432D+03   -1.33D+04    6
      Virial theorem: -V/T =     12.043494
@    MULPOP   C_a     0.80; C_b     0.85; C_c     1.05; C_d     0.55; C_e     0.50; C_f     0.94; C_g     0.80; C_h     0.52; C_i     0.41; C_j     0.95; 
@             C_k     0.99; C_l     1.03; C_m     0.14; C_n     0.22; C_o     0.57; C_p    -0.22; C_q     1.28; C_r     0.89; C_s     0.66; C_t     0.48; 
@             C_u     0.62; C_v     0.63; C_w     0.83; C_x     0.62; C_y     0.49; C_z    -0.52; C_{     0.38; C_|    -0.03; N_a     0.30; N_b     0.46; 
@    MULPOP    dipole moment & components:     25.9781;      -11.6656     23.2116      0.0000
   6  Level shift: doubly occupied orbital energies shifted by -2.50D-02
 -----------------------------------------------------------------------------
   7  Screening settings (-IFTHRS, JTDIIS, DIFDEN, times)  -10    7    F  2.81D+01  2.82D+01
@  7    -14671.0900000        7.33432D+03    6.23D-04    7
      Virial theorem: -V/T =     12.043493
@    MULPOP   C_a     0.80; C_b     0.85; C_c     1.05; C_d     0.55; C_e     0.50; C_f     0.94; C_g     0.80; C_h     0.52; C_i     0.41; C_j     0.95; 
@             C_k     0.99; C_l     1.03; C_m     0.14; C_n     0.22; C_o     0.57; C_p    -0.22; C_q     1.28; C_r     0.89; C_s     0.66; C_t     0.48; 
@             C_u     0.62; C_v     0.63; C_w     0.83; C_x     0.62; C_y     0.49; C_z    -0.52; C_{     0.38; C_|    -0.03; N_a     0.30; N_b     0.46; 
@    MULPOP    dipole moment & components:     25.9781;      -11.6656     23.2116      0.0000
   7  Level shift: doubly occupied orbital energies shifted by -2.50D-02
 -----------------------------------------------------------------------------
   8  Screening settings (-IFTHRS, JTDIIS, DIFDEN, times)  -10    8    F  2.81D+01  2.83D+01
@  8    -14671.0899987        7.33432D+03    1.33D-06    8
      Virial theorem: -V/T =     12.043493
@    MULPOP   C_a     0.80; C_b     0.85; C_c     1.05; C_d     0.55; C_e     0.50; C_f     0.94; C_g     0.80; C_h     0.52; C_i     0.41; C_j     0.95; 
@             C_k     0.99; C_l     1.03; C_m     0.14; C_n     0.22; C_o     0.57; C_p    -0.22; C_q     1.28; C_r     0.89; C_s     0.66; C_t     0.48; 
@             C_u     0.62; C_v     0.63; C_w     0.83; C_x     0.62; C_y     0.49; C_z    -0.52; C_{     0.38; C_|    -0.03; N_a     0.30; N_b     0.46; 
@    MULPOP    dipole moment & components:     25.9781;      -11.6656     23.2116      0.0000
   8  Level shift: doubly occupied orbital energies shifted by -2.50D-02
 -----------------------------------------------------------------------------
   9  Screening settings (-IFTHRS, JTDIIS, DIFDEN, times)  -10    9    F  2.81D+01  2.83D+01
@  9    -14671.0900468        7.33432D+03   -4.82D-05    8
      Virial theorem: -V/T =     12.043493
@    MULPOP   C_a     0.80; C_b     0.85; C_c     1.05; C_d     0.55; C_e     0.50; C_f     0.94; C_g     0.80; C_h     0.52; C_i     0.41; C_j     0.95; 
@             C_k     0.99; C_l     1.03; C_m     0.14; C_n     0.22; C_o     0.57; C_p    -0.22; C_q     1.28; C_r     0.89; C_s     0.66; C_t     0.48; 
@             C_u     0.62; C_v     0.63; C_w     0.83; C_x     0.62; C_y     0.49; C_z    -0.52; C_{     0.38; C_|    -0.03; N_a     0.30; N_b     0.46; 
@    MULPOP    dipole moment & components:     25.9781;      -11.6656     23.2116      0.0000
   9  Level shift: doubly occupied orbital energies shifted by -2.50D-02
 -----------------------------------------------------------------------------
  10  Screening settings (-IFTHRS, JTDIIS, DIFDEN, times)  -10   10    F  2.81D+01  2.82D+01
@ 10    -14767.3065287        7.07034D+03   -9.62D+01    8
      Virial theorem: -V/T =     12.115681
@    MULPOP   C_a     0.76; C_b     0.80; C_c     1.04; C_d     0.49; C_e     0.45; C_f     0.87; C_g     0.83; C_h     0.53; C_i     0.34; C_j     0.89; 
@             C_k     0.97; C_l     1.00; C_m     0.25; C_n     0.30; C_o     0.64; C_p    -0.21; C_q     1.25; C_r     0.84; C_s     0.58; C_t     0.35; 
@             C_u     0.58; C_v     0.67; C_w     0.84; C_x     0.64; C_y     0.61; C_z    -0.49; C_{     0.41; C_|     0.03; N_a     0.30; N_b     0.46; 
@    MULPOP    dipole moment & components:     24.9517;      -11.2245     22.2844      0.0000
  10  Level shift: doubly occupied orbital energies shifted by -2.50D-02
 -----------------------------------------------------------------------------
  11  Screening settings (-IFTHRS, JTDIIS, DIFDEN, times)  -10   11    F  2.81D+01  2.83D+01
@ 11    -14767.3065558        7.07034D+03   -2.72D-05    8
      Virial theorem: -V/T =     12.115681
@    MULPOP   C_a     0.76; C_b     0.80; C_c     1.04; C_d     0.49; C_e     0.45; C_f     0.87; C_g     0.83; C_h     0.53; C_i     0.34; C_j     0.89; 
@             C_k     0.97; C_l     1.00; C_m     0.25; C_n     0.30; C_o     0.64; C_p    -0.21; C_q     1.25; C_r     0.84; C_s     0.58; C_t     0.35; 
@             C_u     0.58; C_v     0.67; C_w     0.84; C_x     0.64; C_y     0.61; C_z    -0.49; C_{     0.41; C_|     0.03; N_a     0.30; N_b     0.46; 
@    MULPOP    dipole moment & components:     24.9517;      -11.2245     22.2844      0.0000
  11  Level shift: doubly occupied orbital energies shifted by -2.50D-02
 -----------------------------------------------------------------------------
  12  Screening settings (-IFTHRS, JTDIIS, DIFDEN, times)  -10   12    F  2.81D+01  2.83D+01
@ 12    -14742.8943933        7.14272D+03    2.44D+01    8
      Virial theorem: -V/T =     12.097372
@    MULPOP   C_a     0.80; C_b     0.85; C_c     1.02; C_d     0.43; C_e     0.44; C_f     0.88; C_g     0.84; C_h     0.52; C_i     0.33; C_j     0.91; 
@             C_k     1.00; C_l     1.03; C_m     0.24; C_n     0.28; C_o     0.62; C_p    -0.19; C_q     1.26; C_r     0.86; C_s     0.60; C_t     0.39; 
@             C_u     0.59; C_v     0.63; C_w     0.78; C_x     0.63; C_y     0.60; C_z    -0.49; C_{     0.41; C_|     0.03; N_a     0.30; N_b     0.46; 
@    MULPOP    dipole moment & components:     25.3946;      -11.3273     22.7283      0.0000
  12  Level shift: doubly occupied orbital energies shifted by -2.50D-02
 -----------------------------------------------------------------------------
  13  Screening settings (-IFTHRS, JTDIIS, DIFDEN, times)  -10   13    F  2.82D+01  2.84D+01
@ 13    -17350.3076246        8.27815D+03   -2.61D+03    8
      Virial theorem: -V/T =     14.075198
@    MULPOP   C_a     0.86; C_b     0.80; C_c     1.01; C_d     0.38; C_e     0.36; C_f     0.71; C_g     0.83; C_h     0.59; C_i     0.47; C_j     0.67; 
@             C_k     1.05; C_l     0.89; C_m     0.30; C_n     0.40; C_o     0.72; C_p    -0.08; C_q     1.37; C_r     0.54; C_s     0.67; C_t     0.20; 
@             C_u     0.78; C_v     0.65; C_w     0.69; C_x     0.59; C_y     0.58; C_z    -0.61; C_{     0.68; C_|     0.23; N_a     0.38; N_b     0.52; 
@    MULPOP    dipole moment & components:     24.4607;      -11.9334     21.3522      0.0000
  13  Level shift: doubly occupied orbital energies shifted by -2.50D-02
 -----------------------------------------------------------------------------
  14  Screening settings (-IFTHRS, JTDIIS, DIFDEN, times)  -10   14    F  2.85D+01  2.87D+01
@ 14    -54448.9064555        2.18854D+04   -3.71D+04    8
      Virial theorem: -V/T =     44.366392
@    MULPOP   C_a     0.28; C_b     0.54; C_c    -0.38; C_d    -0.35; C_e    -0.63; C_f     0.40; C_g    -0.99; C_h     0.58; C_i    -0.38; C_j    -1.75; 
@             C_k     0.30; C_l     0.70; C_m    -0.59; C_n     0.14; C_o     0.37; C_p     1.27; C_q     0.14; C_r    -1.86; C_s     0.41; C_t     0.29; 
@             C_u    -0.56; C_v     0.53; C_w     0.17; C_x    -1.83; C_y     0.09; C_z    -0.05; C_{     0.14; C_|     0.13; N_a     3.69; N_b     2.44; 
@    MULPOP    dipole moment & components:    253.7452;      104.5833   -231.1904      0.0000
  14  Level shift: doubly occupied orbital energies shifted by -2.50D-02
 -----------------------------------------------------------------------------
  15  Screening settings (-IFTHRS, JTDIIS, DIFDEN, times)  -10   15    F  2.85D+01  2.86D+01
@ 15    -57741.8145776        2.23587D+04   -3.29D+03    8
      Virial theorem: -V/T =     47.226573
@    MULPOP   C_a     0.67; C_b     0.58; C_c    -0.14; C_d     0.87; C_e     0.56; C_f    -1.04; C_g    -1.41; C_h     0.70; C_i    -1.61; C_j    -2.54; 
@             C_k     0.89; C_l     0.48; C_m    -0.83; C_n    -0.31; C_o     0.56; C_p     1.02; C_q     0.30; C_r    -1.41; C_s     0.67; C_t     1.09; 
@             C_u    -1.50; C_v    -0.34; C_w     0.57; C_x    -2.21; C_y     0.52; C_z     0.99; C_{     1.06; C_|    -0.27; N_a     5.21; N_b     2.68; 
@    MULPOP    dipole moment & components:    191.0031;       79.7207   -173.5707      0.0000
  15  Level shift: doubly occupied orbital energies shifted by -2.50D-02
 -----------------------------------------------------------------------------
  16  Screening settings (-IFTHRS, JTDIIS, DIFDEN, times)  -10   16    F  2.85D+01  2.86D+01
@ 16    -58263.7689428        2.24069D+04   -5.22D+02    8
      Virial theorem: -V/T =     47.599226
@    MULPOP   C_a     2.07; C_b     1.19; C_c    -0.26; C_d    -0.53; C_e     0.21; C_f    -0.01; C_g    -4.07; C_h    -1.01; C_i    -3.07; C_j    -3.30; 
@             C_k     2.50; C_l     2.91; C_m    -0.26; C_n    -2.09; C_o    -0.01; C_p     0.82; C_q    -1.04; C_r    -0.01; C_s     0.18; C_t     1.75; 
@             C_u    -1.76; C_v    -1.88; C_w    -1.06; C_x    -1.72; C_y     0.94; C_z     1.75; C_{     0.72; C_|    -1.76; N_a     7.10; N_b     2.64; 
@    MULPOP    dipole moment & components:     70.3713;       39.3711    -58.3270      0.0000
  16  Level shift: doubly occupied orbital energies shifted by -2.50D-02
 -----------------------------------------------------------------------------
  17  Screening settings (-IFTHRS, JTDIIS, DIFDEN, times)  -10   17    F  2.85D+01  2.86D+01
@ 17    -59130.2858553        2.24951D+04   -8.67D+02    8
      Virial theorem: -V/T =     47.590835
@    MULPOP   C_a    -0.47; C_b    -0.59; C_c    -0.95; C_d    -1.39; C_e    -1.33; C_f    -0.12; C_g    -0.39; C_h    -0.83; C_i    -0.89; C_j    -1.23; 
@             C_k    -0.04; C_l    -0.24; C_m    -0.58; C_n    -0.71; C_o     1.79; C_p     0.35; C_q     0.47; C_r    -0.23; C_s    -2.66; C_t    -1.82; 
@             C_u     0.75; C_v     0.33; C_w    -1.37; C_x    -1.05; C_y     1.95; C_z     0.98; C_{     0.19; C_|     0.35; N_a     3.51; N_b     2.47; 
@    MULPOP    dipole moment & components:    275.0855;       95.5544   -257.9562      0.0000
  17  Level shift: doubly occupied orbital energies shifted by -2.50D-02
 -----------------------------------------------------------------------------
  18  Screening settings (-IFTHRS, JTDIIS, DIFDEN, times)  -10   18    F  2.85D+01  2.86D+01
@ 18    -63151.1153233        2.34965D+04   -4.02D+03    8
      Virial theorem: -V/T =     51.014105
@    MULPOP   C_a    -0.63; C_b    -1.01; C_c    -0.75; C_d    -0.69; C_e    -1.29; C_f     0.58; C_g     0.63; C_h    -0.54; C_i    -2.72; C_j    -1.40; 
@             C_k     0.36; C_l    -1.39; C_m     0.35; C_n    -1.23; C_o     1.90; C_p     0.79; C_q    -0.78; C_r     0.25; C_s    -1.25; C_t    -0.98; 
@             C_u     0.08; C_v     0.04; C_w    -1.40; C_x    -0.34; C_y     0.81; C_z     2.34; C_{     1.45; C_|    -1.91; N_a     3.65; N_b     2.62; 
@    MULPOP    dipole moment & components:    196.6833;       76.4820   -181.2038      0.0000
  18  Level shift: doubly occupied orbital energies shifted by -2.50D-02
 -----------------------------------------------------------------------------
  19  Screening settings (-IFTHRS, JTDIIS, DIFDEN, times)  -10   19    F  2.85D+01  2.87D+01
@ 19    -62132.8152384        2.30115D+04    1.02D+03    8
      Virial theorem: -V/T =     49.519334
@    MULPOP   C_a    -0.96; C_b    -0.63; C_c    -0.91; C_d    -1.66; C_e    -1.83; C_f    -0.24; C_g    -0.72; C_h    -1.45; C_i    -0.58; C_j    -0.67; 
@             C_k    -0.01; C_l    -0.12; C_m    -0.36; C_n    -0.10; C_o     1.09; C_p     0.19; C_q    -1.39; C_r    -1.52; C_s    -0.68; C_t    -0.26; 
@             C_u    -0.19; C_v    -0.90; C_w    -0.79; C_x    -0.33; C_y     0.89; C_z     0.85; C_{     0.34; C_|    -0.89; N_a     3.49; N_b     1.76; 
@    MULPOP    dipole moment & components:    214.0487;       74.4750   -200.6747      0.0000
  19  Level shift: doubly occupied orbital energies shifted by -2.50D-02
 -----------------------------------------------------------------------------
  20  Screening settings (-IFTHRS, JTDIIS, DIFDEN, times)  -10   20    F  2.84D+01  2.86D+01
@ 20    -66966.1520256        2.42996D+04   -4.83D+03    8
      Virial theorem: -V/T =     53.221387
@    MULPOP   C_a     0.35; C_b    -0.97; C_c    -0.02; C_d    -2.32; C_e    -0.99; C_f     0.17; C_g    -0.77; C_h    -1.66; C_i     0.68; C_j    -1.07; 
@             C_k    -0.86; C_l     1.18; C_m    -2.13; C_n    -0.02; C_o     1.81; C_p    -0.11; C_q    -2.89; C_r    -0.23; C_s     0.44; C_t    -1.97; 
@             C_u     0.83; C_v     0.11; C_w    -3.03; C_x    -1.06; C_y     1.07; C_z    -0.64; C_{     0.51; C_|     0.59; N_a     3.49; N_b     1.53; 
@    MULPOP    dipole moment & components:    179.4090;       64.7763   -167.3070      0.0000
  20  Level shift: doubly occupied orbital energies shifted by -2.50D-02
 -----------------------------------------------------------------------------
  21  Screening settings (-IFTHRS, JTDIIS, DIFDEN, times)  -10   21    F  2.84D+01  2.87D+01
@ 21    -62305.6470841        2.04988D+04    4.66D+03    8
      Virial theorem: -V/T =     49.436593
@    MULPOP   C_a    -1.10; C_b    -0.94; C_c     0.14; C_d    -1.10; C_e    -1.01; C_f    -0.58; C_g    -1.01; C_h    -1.02; C_i    -0.81; C_j    -0.58; 
@             C_k    -0.96; C_l    -1.71; C_m    -0.79; C_n     0.18; C_o     1.30; C_p     0.83; C_q    -0.95; C_r    -0.43; C_s    -0.35; C_t    -0.59; 
@             C_u    -1.02; C_v    -1.54; C_w    -1.43; C_x    -1.34; C_y     1.38; C_z     0.90; C_{     0.72; C_|    -0.78; N_a     3.20; N_b     1.54; 
@    MULPOP    dipole moment & components:    222.0206;       80.8522   -206.7755      0.0000
  21  Level shift: doubly occupied orbital energies shifted by -2.50D-02
 -----------------------------------------------------------------------------
  22  Screening settings (-IFTHRS, JTDIIS, DIFDEN, times)  -10   22    F  2.85D+01  2.87D+01
@ 22    -97252.2728002        1.64884D+04   -3.49D+04    8
      Virial theorem: -V/T =     71.951469
@    MULPOP   C_a    -1.06; C_b     0.16; C_c     0.46; C_d     0.24; C_e     0.05; C_f     0.12; C_g     0.32; C_h     0.13; C_i     1.00; C_j     0.21; 
@             C_k     0.69; C_l    -0.04; C_m     0.36; C_n     2.22; C_o     2.71; C_p     0.25; C_q    -1.73; C_r     1.58; C_s     0.42; C_t    -0.18; 
@             C_u     0.74; C_v     0.80; C_w    -0.39; C_x     0.25; C_y    -3.58; C_z    -6.52; C_{    -0.54; C_|    -0.25; N_a     4.83; N_b    -5.34; 
@    MULPOP    dipole moment & components:   1132.7985;     -336.9029   1081.5400      0.0000
  22  Level shift: doubly occupied orbital energies shifted by -2.50D-02
 -----------------------------------------------------------------------------
  23  Screening settings (-IFTHRS, JTDIIS, DIFDEN, times)  -10   23    F  2.85D+01  2.87D+01
@ 23    -105404.714944        7.16044D+03   -8.15D+03    8
      Virial theorem: -V/T =     80.764057
@    MULPOP   C_a     3.47; C_b   -10.65; C_c     3.77; C_d    -1.35; C_e    -3.41; C_f    -1.88; C_g    -3.21; C_h    -1.69; C_i    -0.62; C_j    -1.61; 
@             C_k    -1.05; C_l    -5.63; C_m    -6.42; C_n    -2.92; C_o     0.45; C_p    -2.78; C_q     0.30; C_r     0.63; C_s     1.30; C_t     1.15; 
@             C_u    -1.12; C_v     9.30; C_w     1.51; C_x   -15.97; C_y     2.26; C_z     2.06; C_{     1.64; C_|     0.57; N_a     2.44; N_b     4.53; 
@    MULPOP    dipole moment & components:   1439.0237;      419.6350  -1376.4795      0.0000
  23  Level shift: doubly occupied orbital energies shifted by -1.25D-02
 -----------------------------------------------------------------------------
  24  Screening settings (-IFTHRS, JTDIIS, DIFDEN, times)  -10   24    F  2.85D+01  2.87D+01
@ 24    -106714.975808        2.78256D+03   -1.31D+03    8
      Virial theorem: -V/T =    101.588049
@    MULPOP   C_a    -0.08; C_b     0.18; C_c     2.20; C_d     2.57; C_e     2.68; C_f     3.02; C_g     2.95; C_h     3.05; C_i     3.57; C_j     3.06; 
@             C_k     3.63; C_l     3.89; C_m     4.10; C_n     4.45; C_o     4.82; C_p     4.50; C_q     1.64; C_r     1.37; C_s     0.84; C_t     1.17; 
@             C_u     0.63; C_v     0.62; C_w     0.72; C_x     0.60; C_y     2.89; C_z   -17.87; C_{    -6.36; C_|     1.72; N_a     6.90; N_b   -31.81; 
@    MULPOP    dipole moment & components:   3701.6536;    -1149.0045   3518.8105      0.0000
 -----------------------------------------------------------------------------
  25  Screening settings (-IFTHRS, JTDIIS, DIFDEN, times)  -10   25    F  2.85D+01  2.86D+01
@ 25    -108203.514440        1.08729D+03   -1.49D+03    8
      Virial theorem: -V/T =     96.977157
@    MULPOP   C_a    -0.07; C_b    -0.04; C_c    -0.59; C_d    -0.04; C_e    -4.74; C_f    -3.53; C_g    -1.83; C_h    -3.35; C_i    -6.82; C_j    -5.27; 
@             C_k    -6.28; C_l    -6.18; C_m    -3.19; C_n    -7.05; C_o    -3.74; C_p    -8.29; C_q     3.83; C_r     3.58; C_s     1.29; C_t     1.53; 
@             C_u     1.05; C_v     0.76; C_w     1.08; C_x     1.05; C_y     4.62; C_z     4.82; C_{     4.75; C_|     4.10; N_a     5.42; N_b     6.86; 
@    MULPOP    dipole moment & components:   2856.8101;      838.9782  -2730.8386      0.0000
 -----------------------------------------------------------------------------
  26  Screening settings (-IFTHRS, JTDIIS, DIFDEN, times)  -10   26    F  2.85D+01  2.87D+01
@ 26    -108489.886671        1.00482D+03   -2.86D+02    8
      Virial theorem: -V/T =    100.300309
@    MULPOP   C_a    -1.49; C_b    -0.03; C_c    -0.30; C_d    -0.22; C_e     0.03; C_f     0.79; C_g     2.74; C_h     2.68; C_i     3.44; C_j     2.80; 
@             C_k     3.45; C_l     3.35; C_m     3.75; C_n     4.14; C_o     4.44; C_p     4.35; C_q   -18.45; C_r   -10.64; C_s    -7.24; C_t    -5.79; 
@             C_u    -5.40; C_v    -1.14; C_w    -1.65; C_x    -1.52; C_y     2.19; C_z    -0.93; C_{    -6.24; C_|    -3.19; N_a     4.91; N_b     3.84; 
@    MULPOP    dipole moment & components:   1802.0703;     -467.4302   1740.3925      0.0000
 -----------------------------------------------------------------------------
  27  Screening settings (-IFTHRS, JTDIIS, DIFDEN, times)  -10   27    F  2.84D+01  2.86D+01
@ 27    -108310.156393        6.78528D+02    1.80D+02    8
      Virial theorem: -V/T =     83.604961
@    MULPOP   C_a    -0.46; C_b     0.13; C_c    -0.12; C_d    -0.05; C_e     0.16; C_f     0.71; C_g     0.90; C_h     0.87; C_i     1.46; C_j     1.17; 
@             C_k     1.17; C_l     1.47; C_m     1.58; C_n     1.57; C_o     2.73; C_p     2.29; C_q     3.77; C_r     3.56; C_s     3.23; C_t     3.29; 
@             C_u     3.07; C_v     0.83; C_w     0.76; C_x     0.92; C_y    -1.73; C_z     3.26; C_{     4.28; C_|     3.99; N_a     4.91; N_b   -32.54; 
@    MULPOP    dipole moment & components:   2247.2720;     -725.6900   2126.8769      0.0000
 -----------------------------------------------------------------------------
  28  Screening settings (-IFTHRS, JTDIIS, DIFDEN, times)  -10   28    F  2.85D+01  2.87D+01
@ 28    -109354.452075        6.54991D+02   -1.04D+03    8
      Virial theorem: -V/T =     86.654845
@    MULPOP   C_a    -0.97; C_b    -0.38; C_c    -0.65; C_d    -0.47; C_e    -0.11; C_f    -0.95; C_g    -3.38; C_h    -2.64; C_i    -5.30; C_j    -4.42; 
@             C_k    -3.44; C_l    -5.59; C_m    -4.64; C_n    -2.37; C_o    -1.80; C_p    -5.86; C_q     1.22; C_r     1.04; C_s     0.83; C_t     1.27; 
@             C_u     0.51; C_v     0.68; C_w     0.50; C_x     0.47; C_y     4.23; C_z     2.01; C_{     2.09; C_|     1.43; N_a     4.03; N_b     6.74; 
@    MULPOP    dipole moment & components:   1949.1111;      573.9166  -1862.7006      0.0000
 -----------------------------------------------------------------------------
  29  Screening settings (-IFTHRS, JTDIIS, DIFDEN, times)  -10   29    F  2.84D+01  2.86D+01
@ 29    -108155.075320        6.09144D+02    1.20D+03    8
      Virial theorem: -V/T =     89.039500
@    MULPOP   C_a    -0.49; C_b     0.18; C_c     0.05; C_d     0.13; C_e     0.50; C_f     0.73; C_g     1.08; C_h     2.85; C_i     3.63; C_j     3.27; 
@             C_k     3.38; C_l     3.57; C_m     3.74; C_n     4.36; C_o     4.65; C_p     4.47; C_q     1.90; C_r     1.65; C_s     1.15; C_t     1.15; 
@             C_u     0.89; C_v     0.83; C_w     0.82; C_x     0.81; C_y     4.70; C_z   -11.46; C_{     1.36; C_|     1.27; N_a     4.90; N_b   -34.01; 
@    MULPOP    dipole moment & components:   3119.2728;     -972.9381   2963.6555      0.0000
 -----------------------------------------------------------------------------
  30  Screening settings (-IFTHRS, JTDIIS, DIFDEN, times)  -10   30    F  2.84D+01  2.86D+01
@ 30    -108977.443774        3.68313D+02   -8.22D+02    8
      Virial theorem: -V/T =     92.482710
@    MULPOP   C_a    -0.49; C_b    -0.46; C_c    -0.21; C_d    -0.27; C_e    -0.17; C_f     0.84; C_g     2.03; C_h    -8.04; C_i    -7.42; C_j    -8.93; 
@             C_k    -3.26; C_l    -6.61; C_m    -6.07; C_n    -0.34; C_o    -3.05; C_p    -9.00; C_q     3.70; C_r     3.35; C_s     3.13; C_t     3.30; 
@             C_u     2.90; C_v     0.90; C_w     0.79; C_x     0.78; C_y     2.64; C_z     3.74; C_{     4.40; C_|     3.72; N_a     4.57; N_b     4.69; 
@    MULPOP    dipole moment & components:   2581.6888;      743.9830  -2472.1663      0.0000
 -----------------------------------------------------------------------------
  31  Screening settings (-IFTHRS, JTDIIS, DIFDEN, times)  -10   31    F  2.85D+01  2.86D+01
@ 31    -109716.929633        9.73126D+01   -7.39D+02    8
      Virial theorem: -V/T =     81.389459
@    MULPOP   C_a    -2.28; C_b    -5.70; C_c    -0.61; C_d    -1.63; C_e    -0.11; C_f     0.26; C_g     0.53; C_h     0.90; C_i     1.59; C_j     0.57; 
@             C_k     1.08; C_l     1.25; C_m     1.63; C_n     1.82; C_o     2.09; C_p     2.50; C_q    -0.40; C_r    -0.23; C_s    -4.69; C_t    -6.27; 
@             C_u    -7.19; C_v     0.30; C_w    -1.15; C_x    -1.86; C_y    -3.77; C_z    -8.47; C_{     8.71; C_|    -1.26; N_a     4.92; N_b    -1.94; 
@    MULPOP    dipole moment & components:    796.8205;     -195.2252    772.5348      0.0000
 -----------------------------------------------------------------------------
  32  Screening settings (-IFTHRS, JTDIIS, DIFDEN, times)  -10   32    T  2.78D+01  2.79D+01
@ 32    -109411.622387        7.85050D+01    3.05D+02    8
      Virial theorem: -V/T =     79.057986
@    MULPOP   C_a    -0.59; C_b    -0.52; C_c    -0.33; C_d    -0.44; C_e    -0.13; C_f     0.27; C_g     0.44; C_h     0.45; C_i     1.22; C_j     0.54; 
@             C_k     1.06; C_l     0.85; C_m     1.32; C_n     1.48; C_o     2.72; C_p     1.19; C_q     1.42; C_r     0.95; C_s     1.18; C_t     1.07; 
@             C_u     0.72; C_v     0.73; C_w     0.63; C_x     0.66; C_y    -0.45; C_z     1.27; C_{     1.98; C_|     0.78; N_a     4.87; N_b   -23.14; 
@    MULPOP    dipole moment & components:   1576.6019;     -495.1492   1496.8303      0.0000
 -----------------------------------------------------------------------------
  33  Screening settings (-IFTHRS, JTDIIS, DIFDEN, times)  -10   33    T  2.79D+01  2.80D+01
@ 33    -109737.599699        6.04745D+01   -3.26D+02    8
      Virial theorem: -V/T =     83.561653
@    MULPOP   C_a    -2.99; C_b    -3.55; C_c    -2.33; C_d    -7.30; C_e    -6.12; C_f    -5.93; C_g    -5.01; C_h    -0.18; C_i    -1.45; C_j     0.64; 
@             C_k     1.02; C_l     0.89; C_m     1.44; C_n     2.52; C_o     2.38; C_p    -2.52; C_q     0.71; C_r     0.99; C_s     1.31; C_t     0.75; 
@             C_u     0.98; C_v    -0.31; C_w    -1.24; C_x    -1.46; C_y     1.53; C_z     1.93; C_{     1.89; C_|     0.91; N_a    -1.91; N_b     4.21; 
@    MULPOP    dipole moment & components:    903.1909;      288.1131   -856.0050      0.0000
 -----------------------------------------------------------------------------
  34  Screening settings (-IFTHRS, JTDIIS, DIFDEN, times)  -10   34    T  2.75D+01  2.77D+01
@ 34    -109721.643415        5.67121D+01    1.60D+01    8
      Virial theorem: -V/T =     83.519959
@    MULPOP   C_a    -0.58; C_b    -0.54; C_c    -0.57; C_d     0.08; C_e     0.09; C_f     0.44; C_g     0.17; C_h     0.48; C_i     0.81; C_j    -4.11; 
@             C_k    -8.07; C_l    -3.41; C_m    -4.03; C_n    -4.89; C_o    -2.68; C_p    -1.47; C_q    -0.57; C_r    -1.56; C_s    -1.19; C_t     1.26; 
@             C_u     0.42; C_v     0.95; C_w     0.56; C_x     0.71; C_y     1.56; C_z     2.07; C_{     0.16; C_|    -0.81; N_a     4.93; N_b     3.95; 
@    MULPOP    dipole moment & components:   1227.0249;      374.1678  -1168.5840      0.0000
 -----------------------------------------------------------------------------
  35  Screening settings (-IFTHRS, JTDIIS, DIFDEN, times)  -10   35    T  2.75D+01  2.76D+01
@ 35    -109897.365689        3.54169D+01   -1.76D+02    8
      Virial theorem: -V/T =     84.304719
@    MULPOP   C_a    -3.37; C_b    -2.34; C_c    -0.41; C_d    -0.00; C_e     0.03; C_f     0.29; C_g     0.81; C_h    -0.60; C_i    -2.18; C_j    -0.57; 
@             C_k     1.03; C_l     0.96; C_m     1.28; C_n     1.54; C_o     4.03; C_p    -0.92; C_q    -0.63; C_r    -1.48; C_s    -1.38; C_t    -2.11; 
@             C_u    -2.52; C_v    -3.47; C_w    -1.03; C_x    -1.11; C_y    -1.71; C_z    -1.38; C_{     0.33; C_|    -1.54; N_a     3.57; N_b     0.31; 
@    MULPOP    dipole moment & components:    496.1597;     -139.4697    476.1540      0.0000
 -----------------------------------------------------------------------------
  36  Screening settings (-IFTHRS, JTDIIS, DIFDEN, times)  -10   36    T  2.77D+01  2.79D+01
@ 36    -109924.222118        1.83152D+01   -2.69D+01    8
      Virial theorem: -V/T =     83.634364
@    MULPOP   C_a    -0.18; C_b    -1.60; C_c    -4.10; C_d     1.69; C_e     2.14; C_f     0.32; C_g     0.03; C_h    -4.83; C_i     0.16; C_j    -3.38; 
@             C_k    -3.49; C_l     3.73; C_m    -0.04; C_n     0.58; C_o     0.90; C_p    -2.68; C_q    -0.44; C_r    -1.35; C_s    -1.76; C_t    -1.38; 
@             C_u     0.84; C_v     1.29; C_w     0.91; C_x     0.35; C_y    -1.53; C_z     1.83; C_{    -0.21; C_|    -1.48; N_a     3.26; N_b    -1.05; 
@    MULPOP    dipole moment & components:    137.5789;      -29.6129    134.3542      0.0000
 -----------------------------------------------------------------------------
  37  Screening settings (-IFTHRS, JTDIIS, DIFDEN, times)  -10   37    T  2.77D+01  2.79D+01
@ 37    -109942.025749        1.12113D+01   -1.78D+01    8
      Virial theorem: -V/T =     84.677355
@    MULPOP   C_a    -2.67; C_b    -2.57; C_c    -2.16; C_d    -1.05; C_e     0.77; C_f    -1.34; C_g    -1.05; C_h     0.25; C_i    -0.47; C_j    -2.73; 
@             C_k    -0.75; C_l     1.76; C_m    -4.97; C_n     3.15; C_o     2.39; C_p    -2.16; C_q    -0.22; C_r     0.82; C_s    -1.64; C_t    -1.88; 
@             C_u    -1.95; C_v    -0.51; C_w    -1.13; C_x    -1.15; C_y    -1.21; C_z     2.59; C_{     0.22; C_|    -0.75; N_a     3.17; N_b     0.95; 
@    MULPOP    dipole moment & components:    146.9794;       57.6090   -135.2189      0.0000
 -----------------------------------------------------------------------------
  38  Screening settings (-IFTHRS, JTDIIS, DIFDEN, times)  -10   38    T  2.79D+01  2.80D+01
@ 38    -109939.198358        1.34712D+01    2.83D+00    8
      Virial theorem: -V/T =     84.755430
@    MULPOP   C_a    -0.47; C_b    -0.65; C_c    -1.38; C_d    -2.85; C_e    -2.17; C_f    -0.04; C_g    -2.24; C_h    -1.41; C_i    -0.47; C_j    -3.10; 
@             C_k    -3.71; C_l     0.15; C_m     1.08; C_n     0.26; C_o     1.15; C_p    -2.10; C_q    -0.37; C_r    -0.35; C_s    -1.47; C_t    -0.91; 
@             C_u    -1.32; C_v    -0.84; C_w    -0.00; C_x     0.56; C_y    -1.11; C_z     1.02; C_{     0.13; C_|    -1.56; N_a     2.91; N_b     1.42; 
@    MULPOP    dipole moment & components:    285.1594;       99.3589   -267.2895      0.0000
 -----------------------------------------------------------------------------
  39  Screening settings (-IFTHRS, JTDIIS, DIFDEN, times)  -10   39    T  2.73D+01  2.74D+01
@ 39    -109948.550144        7.35960D+00   -9.35D+00    8
      Virial theorem: -V/T =     84.408092
@    MULPOP   C_a    -2.28; C_b    -2.82; C_c     1.54; C_d    -7.66; C_e     1.98; C_f     0.08; C_g    -2.87; C_h    -1.59; C_i     3.41; C_j    -3.55; 
@             C_k    -2.61; C_l    -0.37; C_m     1.21; C_n     0.34; C_o     1.15; C_p    -2.04; C_q    -0.77; C_r     0.45; C_s    -2.02; C_t     1.29; 
@             C_u    -0.72; C_v    -1.18; C_w    -1.11; C_x    -0.90; C_y    -0.95; C_z     1.46; C_{     0.14; C_|    -0.58; N_a     2.92; N_b     0.79; 
@    MULPOP    dipole moment & components:    166.5568;       52.3850   -158.1043      0.0000
 -----------------------------------------------------------------------------
  40  Screening settings (-IFTHRS, JTDIIS, DIFDEN, times)  -10   40    T  2.72D+01  2.73D+01
@ 40    -109950.931924        3.65249D+00   -2.38D+00    8
      Virial theorem: -V/T =     84.340847
@    MULPOP   C_a    -3.04; C_b    -2.15; C_c    -0.17; C_d    -5.05; C_e     0.33; C_f     0.69; C_g    -1.38; C_h    -2.53; C_i     1.28; C_j    -2.86; 
@             C_k    -3.21; C_l     1.61; C_m     0.70; C_n     1.50; C_o     0.25; C_p    -2.05; C_q    -0.18; C_r    -0.24; C_s    -1.35; C_t    -0.53; 
@             C_u    -1.91; C_v    -1.15; C_w     0.37; C_x     0.41; C_y    -0.71; C_z     1.25; C_{     0.30; C_|    -1.05; N_a     2.77; N_b     0.64; 
@    MULPOP    dipole moment & components:    120.9598;       46.7446   -111.5626      0.0000
 -----------------------------------------------------------------------------
  41  Screening settings (-IFTHRS, JTDIIS, DIFDEN, times)  -10   41    T  2.71D+01  2.73D+01
@ 41    -109951.484189        2.00897D+00   -5.52D-01    8
      Virial theorem: -V/T =     84.211222
[...]
 899 N_a :1s     0.0505   0.2651   0.0343  -0.0055   0.0616  -0.0078
 900 N_a :1s    -0.0187   0.1565  -0.1725   0.0751   0.0365  -0.1221
 901 N_a :1s     0.1368   0.0121   0.1500  -0.0960   0.0125   0.0598
 902 N_a :2px    0.1067   0.7157   0.0382  -0.0239  -0.8551  -0.0041
 903 N_a :2py   -0.1132  -0.6118  -0.0133  -0.0132  -0.8797  -0.0075
 905 N_a :2px   -0.0782  -0.4772  -0.0080   0.0130   0.3899  -0.0039
 906 N_a :2py    0.0903   0.4895   0.0511  -0.0088   0.4671   0.0062
 908 N_a :2px   -0.0682   0.0183  -0.1902   0.0659   0.0468  -0.0022
 909 N_a :2py   -0.0229   0.0679   0.0261  -0.0224   0.0563   0.0143
 911 N_a :2px   -0.0107   0.0422  -0.0417  -0.0040   0.0453   0.0138
 912 N_a :2py   -0.0259   0.0594  -0.2964   0.1081   0.0423   0.0335
 914 N_a :3d2-  -0.0063  -0.0375  -0.0012   0.0002   0.0009  -0.0000
 918 N_a :3d2+  -0.0024  -0.0119  -0.0009  -0.0001  -0.0055   0.0001
 919 N_a :3d2-   0.0139   0.0787   0.0110  -0.0036   0.0576   0.0010
 923 N_a :3d2+   0.0082   0.0452   0.0265  -0.0091  -0.0990   0.0003
 924 N_a :3d2-   0.0063   0.0036   0.0284  -0.0084   0.0042  -0.0041
 926 N_a :3d0    0.0016   0.0239   0.0155  -0.0091   0.0025   0.0003
 928 N_a :3d2+  -0.0138   0.0379  -0.0409   0.0098  -0.0023   0.0032
 932 N_b :1s    -0.1676  -0.0355   0.2657   0.0170   0.0224  -0.1543
 933 N_b :1s    -0.1960  -0.5621   1.2353  -0.2609  -0.0332  -0.3559
 937 N_b :2px    0.0005  -0.0059   0.0260  -0.0008  -0.0002  -0.0144
 938 N_b :2py    0.0110  -0.0119   0.0154  -0.0028   0.0008  -0.0033
 940 N_b :2px   -0.0678   0.0247   0.0078   0.0458   0.0566  -0.1509
 941 N_b :2py    0.0780  -0.0460   0.0544  -0.0824   0.0392  -0.0323
 943 N_b :2px    0.0097  -0.0012  -0.0909   0.0611  -0.0097   0.0315
 944 N_b :2py   -0.0737  -0.2314   0.5404  -0.1363  -0.0239  -0.0933
 955 N_b :3d2+  -0.0003  -0.0114   0.0153  -0.0017  -0.0026   0.0006
 956 N_b :3d2-  -0.0580  -0.0148   0.2313  -0.0093   0.0109  -0.0834
 958 N_b :3d0    0.0159   0.0228  -0.0113  -0.0021   0.0017  -0.0019
 960 N_b :3d2+   0.0816  -0.1419   0.4338  -0.1466   0.0085  -0.0420
 963 O_a :1s     0.0093  -0.0128   0.0098  -0.0017  -0.0028   0.0000
 964 O_a :1s     0.1822  -0.1209   0.2432  -0.1531   0.0132   0.0001
 965 O_a :1s    -0.0121   0.2984  -0.6838   0.1422   0.0524   0.0604
 972 O_a :2px    0.0440  -0.1336   0.5344  -0.1227   0.0022  -0.0820
 973 O_a :2py   -0.0384   0.0217  -0.1255   0.0626  -0.0156   0.0170
 975 O_a :2px   -0.0222  -0.0344   0.0075  -0.0149  -0.0092   0.0084
 976 O_a :2py    0.0185   0.1237  -0.2390   0.0362   0.0250   0.0259
 988 O_a :3d2-   0.0106  -0.0256   0.0890  -0.0205  -0.0010  -0.0112
 990 O_a :3d0    0.0106  -0.0029   0.0071  -0.0095   0.0027   0.0014
 992 O_a :3d2+   0.0131  -0.0043   0.0298  -0.0168   0.0028  -0.0018
 995 O_b :1s     0.0033   0.0057  -0.0265   0.0022  -0.0008   0.0074
 996 O_b :1s     0.0462   0.2206  -0.7535   0.1279  -0.0314   0.2174
 997 O_b :1s     0.1255   0.0673  -0.0943   0.0312  -0.0287   0.1193
1001 O_b :2px   -0.0038  -0.0034   0.0170  -0.0009   0.0010  -0.0071
1004 O_b :2px   -0.0465   0.0088  -0.0445   0.0562  -0.0175  -0.0133
1005 O_b :2py    0.0724  -0.1270   0.2790  -0.0805  -0.0134  -0.0297
1007 O_b :2px   -0.0226   0.0031  -0.0402  -0.0067   0.0064  -0.0138
1008 O_b :2py   -0.0279   0.0069  -0.1503   0.0696  -0.0097   0.0121
1020 O_b :3d2-  -0.0134   0.0147  -0.0516   0.0141   0.0028   0.0072
1022 O_b :3d0   -0.0021   0.0017  -0.0287   0.0088  -0.0042   0.0096
1024 O_b :3d2+   0.0107  -0.0079   0.0163  -0.0157   0.0043   0.0044
1026 H_a :1s    -0.0021  -0.1242   0.0275   0.0153   0.0028  -0.0189
1027 H_a :1s    -0.1105  -0.0986  -0.0948   0.1111   0.0221  -0.1702
1028 H_a :1s     0.1316  -0.1295   0.1972  -0.0554  -0.0089   0.0054
1032 H_a :2px   -0.0083  -0.0302   0.0132   0.0077  -0.0001   0.0068
1033 H_a :2py    0.0084   0.0052   0.0158   0.0022  -0.0015  -0.0359
1035 H_a :2px   -0.0501   0.0812  -0.0614   0.0444   0.0112  -0.0307
1036 H_a :2py   -0.0200   0.0898  -0.2183   0.0557   0.0171  -0.0072
1039 H_b :1s     0.0132   0.1112  -0.0997   0.0455  -0.0084  -0.0292
1040 H_b :1s    -0.0495  -0.0342   0.2002  -0.0174  -0.0047  -0.0820
1041 H_b :1s     0.1031   0.1630  -0.5251   0.0284  -0.0301   0.1829
1045 H_b :2px   -0.0149  -0.0302   0.0420  -0.0026   0.0004   0.0016
1046 H_b :2py    0.0161  -0.0012  -0.0366  -0.0193   0.0020   0.0289
1048 H_b :2px    0.0161  -0.0022   0.1467  -0.0045  -0.0334   0.0130
1049 H_b :2py   -0.0028  -0.0543   0.1242   0.0099  -0.0127  -0.0370
1051 H_c :1s    -0.0058  -0.0045   0.0122   0.0035  -0.0001   0.0008
1052 H_c :1s    -0.0474  -0.1124   0.2545  -0.0045  -0.0020  -0.0379
1053 H_c :1s    -0.0494  -0.0155   0.2029   0.0334  -0.0686   0.0289
1054 H_c :1s     0.0510  -0.0633  -0.0024  -0.0081  -0.0327   0.0553
1058 H_c :2px    0.0006  -0.0258   0.0441  -0.0133  -0.0004   0.0011
1059 H_c :2py   -0.0307  -0.0211   0.0492   0.0307  -0.0055  -0.0127
1061 H_c :2px    0.0058  -0.0654   0.0116   0.0006  -0.0198   0.0081
1062 H_c :2py    0.0008  -0.0687   0.1340  -0.0194  -0.0059  -0.0165
1064 H_d :1s     0.0014   0.0065  -0.0160   0.0044   0.0004   0.0053
1065 H_d :1s     0.0292   0.2081  -0.4514   0.0752   0.0259   0.1257
1066 H_d :1s     0.0120  -0.0482   0.0687  -0.0684  -0.0749   0.0991
1067 H_d :1s     0.1710  -0.0875   0.2074  -0.2708   0.0147   0.0729
1071 H_d :2px   -0.0007  -0.0417   0.0787  -0.0185  -0.0059  -0.0120
1072 H_d :2py    0.0023  -0.0216   0.0576  -0.0179  -0.0011  -0.0401
1074 H_d :2px    0.0047   0.0865  -0.3497   0.0219   0.0462   0.0496
1075 H_d :2py   -0.0118   0.0461  -0.1378   0.0161   0.0094   0.0180
1078 H_e :1s    -0.0060  -0.0529  -0.1352   0.0002  -0.0090  -0.0918
1079 H_e :1s     0.0076  -0.3799   0.6445  -0.1749  -0.0684  -0.1412
1080 H_e :1s    -0.1211   0.1764  -0.2212   0.0547   0.0336  -0.0072
1084 H_e :2px   -0.0025  -0.0089  -0.0236  -0.0022  -0.0004  -0.0314
1085 H_e :2py    0.0248   0.0008  -0.0237  -0.0149  -0.0064   0.0510
1087 H_e :2px    0.0229   0.0290   0.0565  -0.0177  -0.0060   0.0315
1088 H_e :2py    0.0059   0.0058   0.0068  -0.0214  -0.0098   0.0185
1091 H_f :1s     0.0078  -0.1911   0.3591  -0.0621  -0.0167  -0.0034
1092 H_f :1s     0.0786  -0.4039   1.0977  -0.2906  -0.0045  -0.1990
1093 H_f :1s    -0.0880  -0.1279   0.5224  -0.0249   0.0228  -0.1508
1097 H_f :2px    0.0052   0.0353  -0.0685  -0.0010   0.0045   0.0107
1098 H_f :2py   -0.0168   0.0249  -0.0421   0.0397  -0.0005  -0.0475
1100 H_f :2px    0.0229  -0.0046   0.1639  -0.0025  -0.0191  -0.0043
1101 H_f :2py    0.0201  -0.0349   0.1302  -0.0414  -0.0055  -0.0002
1104 H_g :1s     0.0388   0.0539  -0.1401   0.0059   0.0335   0.0434
1105 H_g :1s     0.1062  -0.1654   0.8177  -0.2687   0.0271  -0.0996
1106 H_g :1s    -0.0394   0.1200  -0.1178   0.0446   0.0208  -0.0116
1110 H_g :2px    0.0002   0.0203  -0.0349   0.0125   0.0066  -0.0074
1111 H_g :2py    0.0221   0.0124   0.0045  -0.0498   0.0021   0.0591
1113 H_g :2px   -0.0032  -0.1152   0.2451  -0.0759  -0.0024  -0.0749
1114 H_g :2py    0.0082  -0.0598   0.1543  -0.0532   0.0030  -0.0366
1117 H_h :1s    -0.0753   0.0718  -0.3071   0.1097   0.0090   0.0331
1118 H_h :1s     0.0449   0.0331   0.1245  -0.0264  -0.0320   0.1000
1119 H_h :1s    -0.1743   0.1285  -0.2751   0.2906  -0.0160  -0.0444
1123 H_h :2px    0.0104  -0.0185   0.0836  -0.0338  -0.0036   0.0014
1124 H_h :2py    0.0075  -0.0038  -0.0559   0.0540   0.0054  -0.0356
1126 H_h :2px   -0.0716   0.0834  -0.4065   0.1089   0.0114   0.0109
1127 H_h :2py   -0.0215  -0.0206   0.0309   0.0114   0.0001  -0.0156
1130 H_i :1s    -0.0772  -0.1273   0.1070   0.0154  -0.0202  -0.0380
1131 H_i :1s     0.0309  -0.1984   0.3606  -0.0170  -0.1057   0.0351
1132 H_i :1s     0.1100  -0.1909   0.1375  -0.0431  -0.0330   0.0056
1136 H_i :2px   -0.0060  -0.0345   0.0274   0.0093  -0.0053  -0.0160
1137 H_i :2py   -0.0491  -0.0024   0.0208  -0.0204   0.0023   0.0179
1139 H_i :2px    0.0295   0.0676  -0.0766   0.0089  -0.0091   0.0666
1140 H_i :2py   -0.0010   0.0081   0.0445   0.0098  -0.0105   0.0113
1142 H_j :1s     0.0030   0.0058  -0.0132   0.0002   0.0009   0.0041
1143 H_j :1s     0.0739   0.1223  -0.2741  -0.0053   0.0228   0.0604
1144 H_j :1s     0.0871  -0.0685   0.0093  -0.0066  -0.0485   0.1081
1145 H_j :1s     0.0741   0.1240  -0.6063   0.0395   0.0086   0.1243
1149 H_j :2px   -0.0164  -0.0169   0.0658  -0.0129  -0.0047  -0.0065
1150 H_j :2py    0.0125  -0.0223  -0.0619   0.0496   0.0017  -0.0189
1152 H_j :2px    0.0439  -0.0074   0.1467  -0.0856   0.0241  -0.0246
1153 H_j :2py    0.0244  -0.0086   0.0144  -0.0316  -0.0019   0.0140
1156 H_k :1s    -0.0041  -0.0976   0.2450  -0.0825   0.0033  -0.0707
1157 H_k :1s    -0.0579   0.0032   0.0246  -0.0087   0.0111   0.0154
1158 H_k :1s     0.0106  -0.0265  -0.0344  -0.0157   0.0137  -0.0013
1162 H_k :2px    0.0115  -0.0301   0.0757  -0.0212  -0.0015  -0.0183
1163 H_k :2py   -0.0462   0.0177  -0.0473   0.0122   0.0029   0.0034
1165 H_k :2px   -0.0042   0.0055  -0.0025  -0.0109   0.0068  -0.0133
1166 H_k :2py   -0.0289  -0.0721   0.0923   0.0285  -0.0173  -0.0484
1169 H_l :1s    -0.0077  -0.0712   0.1467  -0.0352  -0.0039  -0.0283
1170 H_l :1s    -0.0706   0.4605  -0.8836   0.1142   0.1215   0.0569
1171 H_l :1s     0.1570  -0.1618   0.3068  -0.2564   0.0097  -0.0003
1175 H_l :2px    0.0046   0.0237   0.0068  -0.0072   0.0012   0.0084
1176 H_l :2py    0.0013  -0.0386  -0.0786   0.0487   0.0010  -0.0234
1178 H_l :2px   -0.0303  -0.0833   0.1447   0.0457  -0.0460  -0.0233
1179 H_l :2py   -0.0144  -0.1066   0.1845  -0.0356   0.0054  -0.0947
1182 H_m :1s    -0.0363   0.0704  -0.0086   0.0510   0.0319   0.0346
1183 H_m :1s    -0.2201   0.2836  -0.6280   0.2566   0.1374   0.0149
1184 H_m :1s    -0.0980   0.3531  -0.2538   0.0774   0.0306   0.0563
1188 H_m :2px   -0.0010   0.0093  -0.0031   0.0053   0.0068   0.0107
1189 H_m :2py   -0.0343   0.0056  -0.0407   0.0335   0.0051  -0.0081
1191 H_m :2px   -0.0413   0.0702  -0.1703   0.0695   0.0096   0.0049
1192 H_m :2py   -0.0377  -0.1204   0.1790   0.0097  -0.0001  -0.0177
1195 H_n :1s     0.0128  -0.0396   0.0507  -0.0256   0.0223  -0.0300
1196 H_n :1s     0.0281  -0.0859  -0.0104   0.0086   0.1079  -0.0528
1197 H_n :1s    -0.1187  -0.2418   0.8805  -0.0225  -0.0699  -0.1484
1201 H_n :2px   -0.0015   0.0331  -0.0228   0.0012  -0.0067   0.0164
1202 H_n :2py   -0.0147  -0.0334  -0.0836   0.0488   0.0027  -0.0097
1204 H_n :2px    0.0182   0.0874  -0.1504  -0.0104   0.0105   0.0594
1205 H_n :2py    0.0278   0.0862  -0.0609   0.0464   0.0006   0.0087
1207 H_o :1s    -0.0021   0.0036  -0.0049   0.0007   0.0110   0.0006
1208 H_o :1s    -0.0363  -0.0030  -0.1410  -0.0094  -0.0047   0.0325
1209 H_o :1s     0.1498   0.2385  -0.1858  -0.1779   0.0608   0.2335
1210 H_o :1s     0.0659  -0.3746   0.4179  -0.0844  -0.0805  -0.0857
1214 H_o :2px   -0.0018  -0.0110  -0.0059  -0.0137  -0.0050   0.0105
1215 H_o :2py   -0.0194   0.0338  -0.0762   0.0247   0.0144   0.0019
1217 H_o :2px    0.0412   0.1038  -0.1631  -0.0110   0.0327   0.0665
1218 H_o :2py    0.0027  -0.0436   0.1416  -0.0663  -0.0003   0.0252
1220 H_p :1s     0.0061   0.0338   0.0048  -0.0035  -0.0838  -0.0005
1221 H_p :1s     0.0985   0.1945   0.2360  -0.0851  -0.0750   0.0009
1222 H_p :1s     0.0889   0.5226  -0.6704  -0.0979  -0.0629   0.2952
1223 H_p :1s    -0.0143   0.3220  -0.8326   0.1498   0.0828   0.1060
1227 H_p :2px   -0.0201  -0.0420  -0.0494   0.0164   0.0259  -0.0006
1228 H_p :2py   -0.0093  -0.0246  -0.0418   0.0148  -0.0044  -0.0031
1230 H_p :2px   -0.0183  -0.1555   0.2494  -0.0036  -0.0204  -0.0685
1231 H_p :2py   -0.0021   0.0951  -0.2419   0.0455   0.0603   0.0019
1233 H_q :1s    -0.0432  -0.2640  -0.0156   0.0076   0.2080   0.0010
1234 H_q :1s    -0.0159   0.0013  -0.0099   0.0082   0.0147  -0.0059
1235 H_q :1s     0.0233  -0.3097   0.6978  -0.0947  -0.0248  -0.2480
1236 H_q :1s    -0.0083   0.1987  -0.3223   0.0659   0.0329   0.0711
1237 H_q :2px   -0.0043  -0.0258   0.0005   0.0001   0.0173  -0.0001
1240 H_q :2px   -0.0146  -0.0546  -0.0115   0.0068   0.0431  -0.0028
1241 H_q :2py    0.0034   0.0118   0.0047  -0.0008   0.0312   0.0005
1243 H_q :2px    0.0046  -0.0981   0.2468  -0.0422  -0.0169  -0.0678
1244 H_q :2py   -0.0050  -0.1328   0.3660  -0.0886  -0.0212  -0.0347
1246 H_r :1s    -0.0313  -0.1584  -0.0071  -0.0034  -0.2888  -0.0013
1247 H_r :1s     0.0105  -0.0484   0.0689  -0.0207  -0.0469   0.0164
1248 H_r :1s    -0.1372   0.3407  -1.1342   0.3729  -0.0472   0.1201
1249 H_r :1s     0.0161  -0.2045   0.4183  -0.0930  -0.0206  -0.0613
1251 H_r :2py    0.0025   0.0124   0.0009   0.0003   0.0214  -0.0000
1253 H_r :2px   -0.0006  -0.0173  -0.0003   0.0012   0.0381  -0.0019
1254 H_r :2py    0.0034   0.0642  -0.0238   0.0078   0.0559  -0.0042
1256 H_r :2px   -0.0053  -0.1357   0.2816  -0.0394  -0.0317  -0.0477
1257 H_r :2py    0.0352  -0.0872   0.2805  -0.1026  -0.0011  -0.0281
1260 H_s :1s     0.0288  -0.0885   0.2908  -0.0368  -0.0069   0.0001
1261 H_s :1s    -0.0711  -0.4134   0.9071   0.0295  -0.0423  -0.1369
1262 H_s :1s     0.2256  -0.1578   0.5888  -0.2817   0.0670  -0.0455
1266 H_s :2px    0.0156  -0.0232   0.0618  -0.0041  -0.0039   0.0079
1267 H_s :2py   -0.0222  -0.0013   0.0209  -0.0248   0.0030  -0.0111
1269 H_s :2px   -0.0001  -0.0371  -0.0290   0.0023  -0.0133   0.0508
1270 H_s :2py   -0.0131   0.0211  -0.0478  -0.0083   0.0022  -0.0061
1273 H_t :1s    -0.0041   0.1423  -0.0633   0.0497   0.0020  -0.0298
1274 H_t :1s    -0.2112   0.2443  -0.9094   0.5187  -0.1193   0.0718
1275 H_t :1s     0.0966   0.2505  -0.4957   0.0346   0.0030   0.1602
1279 H_t :2px   -0.0077  -0.0285  -0.0033  -0.0107   0.0001   0.0055
1280 H_t :2py    0.0257  -0.0180   0.0493  -0.0002   0.0005   0.0007
1282 H_t :2px    0.0931   0.0363   0.1845  -0.1257   0.0268   0.0039
1283 H_t :2py   -0.0245  -0.0793   0.1884  -0.0422   0.0050  -0.0309
1286 H_u :1s    -0.0015   0.0238  -0.3016   0.0260   0.0056   0.0933
1287 H_u :1s    -0.1029  -0.0005  -1.0681   0.3317  -0.0856   0.0993
1288 H_u :1s     0.0510  -0.0522   0.0057   0.0643  -0.0544   0.0571
1292 H_u :2px    0.0038   0.0109  -0.0772   0.0132   0.0021   0.0289
1293 H_u :2py   -0.0236  -0.0012  -0.0026  -0.0310  -0.0010  -0.0166
1295 H_u :2px   -0.0049  -0.0236  -0.0644   0.0405  -0.0195   0.0049
1296 H_u :2py   -0.0266  -0.0093   0.0133   0.0395  -0.0108  -0.0443
1299 H_v :1s    -0.0208  -0.0219  -0.0226   0.0497  -0.0068  -0.0569
1300 H_v :1s    -0.0003  -0.1360  -0.2482  -0.0271   0.0565  -0.0776
1301 H_v :1s     0.1535   0.0335  -0.0998  -0.1516  -0.0183   0.1607
1305 H_v :2px   -0.0106   0.0069  -0.0144  -0.0132   0.0017   0.0069
1306 H_v :2py    0.0450  -0.0106   0.0594   0.0053  -0.0024   0.0231
1308 H_v :2px   -0.0200  -0.0429   0.0471   0.0065  -0.0113  -0.0219
1309 H_v :2py    0.0218  -0.0117   0.0098  -0.0152  -0.0189  -0.0026
1312 H_w :1s     0.0126  -0.1013   0.2182  -0.0757  -0.0146  -0.0188
1313 H_w :1s     0.1834  -0.2166   0.6997  -0.4050   0.1113  -0.0766
1314 H_w :1s    -0.1627   0.1489  -0.3332   0.1237  -0.0229   0.0200
1318 H_w :2px    0.0053  -0.0183   0.0454  -0.0006  -0.0017   0.0007
1319 H_w :2py   -0.0037  -0.0164   0.0368  -0.0708  -0.0028  -0.0367
1321 H_w :2px    0.0112   0.0628  -0.0791  -0.0423   0.0442  -0.0280
1322 H_w :2py   -0.0007  -0.0607   0.0656  -0.0200  -0.0010  -0.0320
1325 H_x :1s     0.0193   0.1382  -0.1853   0.0590  -0.0114   0.1920
1326 H_x :1s     0.1811   0.2715   0.2422  -0.2163   0.0754   0.1589
1327 H_x :1s    -0.1028  -0.2524   0.6220  -0.0546   0.0177  -0.1976
1331 H_x :2px   -0.0073  -0.0204   0.0048  -0.0151   0.0024  -0.0514
1332 H_x :2py    0.0216  -0.0186   0.0775   0.0178  -0.0031   0.0357
1334 H_x :2px   -0.0192   0.0693  -0.1537   0.0661  -0.0108   0.0387
1335 H_x :2py    0.0089  -0.0725   0.1506  -0.0394  -0.0191  -0.0091
1337 H_y :1s    -0.0035   0.0044  -0.0110   0.0012  -0.0002  -0.0033
1338 H_y :1s    -0.0457   0.1677  -0.3199   0.1269  -0.0006  -0.0437
1339 H_y :1s     0.0557   0.4737  -0.6007   0.0824   0.0358   0.1593
1340 H_y :1s    -0.0542   0.0586  -0.0156  -0.0241   0.0508  -0.0650
1344 H_y :2px   -0.0123   0.0301  -0.0688   0.0410   0.0008  -0.0054
1345 H_y :2py    0.0176   0.0167   0.0090  -0.0490   0.0003  -0.0328
1347 H_y :2px    0.0370  -0.0306   0.0417  -0.0155  -0.0155   0.0427
1348 H_y :2py    0.0330  -0.0262   0.1511  -0.0393  -0.0063   0.0316
1351 H_z :1s    -0.0049  -0.0444  -0.0731   0.0099  -0.0072  -0.0097
1352 H_z :1s    -0.0760   0.3755  -0.8560   0.2473   0.0309   0.0636
1353 H_z :1s    -0.1649  -0.0015  -0.0403   0.2128  -0.0021  -0.1184
1357 H_z :2px    0.0059   0.0029   0.0158  -0.0012   0.0015  -0.0177
1358 H_z :2py   -0.0183   0.0383  -0.0284   0.0258   0.0000   0.0716
1360 H_z :2px   -0.0126  -0.1283   0.1120  -0.0185   0.0085  -0.0603
1361 H_z :2py    0.0040   0.0778  -0.1478   0.0124   0.0150   0.0478
1364 H_{ :1s    -0.0308   0.0921  -0.1627   0.0914   0.0036  -0.0267
1365 H_{ :1s     0.2388  -0.2525   0.7708  -0.2253  -0.2042   0.3078
1366 H_{ :1s     0.0202  -0.0497   0.1696   0.0190   0.0175  -0.0769
1370 H_{ :2px   -0.0051   0.0183  -0.0325   0.0204  -0.0006  -0.0039
1371 H_{ :2py   -0.0104   0.0142  -0.0241   0.0140   0.0011  -0.0047
1373 H_{ :2px    0.0619  -0.0974   0.2484  -0.0754  -0.0454   0.0738
1374 H_{ :2py    0.0381   0.0767  -0.0273   0.0122   0.0057   0.0009
1377 H_| :1s     0.0660  -0.0269   0.1152  -0.0919   0.0004   0.0245
1378 H_| :1s    -0.0950   0.4232  -0.6931   0.1589   0.0111   0.0754
1379 H_| :1s     0.0479  -0.0010  -0.2063  -0.0401  -0.0215   0.1130
1383 H_| :2px   -0.0086   0.0005  -0.0208   0.0127   0.0017  -0.0014
1384 H_| :2py   -0.0129   0.0132  -0.0298   0.0233  -0.0020  -0.0078
1386 H_| :2px    0.0276  -0.0917   0.2907  -0.0726   0.0130  -0.0551
1387 H_| :2py   -0.0045  -0.1467   0.2966  -0.0384  -0.0412  -0.0193
1390 H_} :1s     0.0500  -0.0024   0.0691  -0.0416   0.0066   0.0370
1391 H_} :1s    -0.1989  -0.1411   0.2575  -0.0420   0.1227  -0.2785
1392 H_} :1s    -0.1584   0.2604  -0.7022   0.1569  -0.0298   0.1122
1396 H_} :2px    0.0135   0.0005   0.0127  -0.0022   0.0017   0.0068
1397 H_} :2py   -0.0167   0.0120  -0.0264  -0.0056   0.0019   0.0031
1399 H_} :2px   -0.0505  -0.0459   0.1724   0.0151   0.0350  -0.1072
1400 H_} :2py   -0.0283   0.0661  -0.2442   0.0434  -0.0084   0.0139
1403 H_~ :1s    -0.0511   0.0093  -0.0866   0.0359   0.0240  -0.0668
1404 H_~ :1s    -0.1654  -0.2751   0.6986   0.0142   0.1573  -0.4571
1405 H_~ :1s    -0.1799  -0.2341   0.6319   0.0618   0.0129  -0.2942
1409 H_~ :2px    0.0113  -0.0030   0.0276  -0.0096  -0.0047   0.0152
1410 H_~ :2py    0.0104   0.0144   0.0008   0.0023  -0.0002   0.0068
1412 H_~ :2px    0.0153   0.0949  -0.3249   0.0384  -0.0147   0.1008
1413 H_~ :2py   -0.0376  -0.0144  -0.0703   0.0312  -0.0245   0.0521

  Total CPU  time used in SIRIUS :   4 hours 57 minutes 20 seconds
  Total wall time used in SIRIUS :   4 hours 59 minutes 32 seconds

 
     Date and time (Linux)  : Fri May 30 02:09:15 2025
     Host name              : xm009                                   

 NOTE:    3 warnings have been issued.
 Check output, result, and error files for "WARNING".


                     .---------------------------------------.
                     | End of Wave Function Section (SIRIUS) |
                     `---------------------------------------'


@ - DALTON aborted because wave function not converged!

  --- SEVERE ERROR, PROGRAM WILL BE ABORTED ---
     Date and time (Linux)  : Fri May 30 02:09:15 2025
     Host name              : xm009                                   

@ MPI MASTER, node no.:     0
@ Reason: DALTON aborted because wave function not converged

  Total CPU  time used in DALTON:   4 hours 57 minutes 35 seconds
  Total wall time used in DALTON:   4 hours 59 minutes 48 seconds


 QTRACE dump of internal trace stack

 ========================
      level    module
 ========================
          3    SIRIUS      
          2    DALTON      
          1    DALTON main 
 ========================

