

     ************************************************************************
     *************** Dalton - An Electronic Structure Program ***************
     ************************************************************************

    This is output from DALTON release Dalton2020.0 (2020)
         ( Web site: http://daltonprogram.org )

   ----------------------------------------------------------------------------

    NOTE:
     
    Dalton is an experimental code for the evaluation of molecular
    properties using (MC)SCF, DFT, CI, and CC wave functions.
    The authors accept no responsibility for the performance of
    the code or for the correctness of the results.
     
    The code (in whole or part) is provided under a licence and
    is not to be reproduced for further distribution without
    the written permission of the authors or their representatives.
     
    See the home page "http://daltonprogram.org" for further information.
     
    If results obtained with this code are published,
    the appropriate citations would be both of:
     
       K. Aidas, C. Angeli, K. L. Bak, V. Bakken, R. Bast,
       L. Boman, O. Christiansen, R. Cimiraglia, S. Coriani,
       P. Dahle, E. K. Dalskov, U. Ekstroem,
       T. Enevoldsen, J. J. Eriksen, P. Ettenhuber, B. Fernandez,
       L. Ferrighi, H. Fliegl, L. Frediani, K. Hald, A. Halkier,
       C. Haettig, H. Heiberg, T. Helgaker, A. C. Hennum,
       H. Hettema, E. Hjertenaes, S. Hoest, I.-M. Hoeyvik,
       M. F. Iozzi, B. Jansik, H. J. Aa. Jensen, D. Jonsson,
       P. Joergensen, J. Kauczor, S. Kirpekar,
       T. Kjaergaard, W. Klopper, S. Knecht, R. Kobayashi, H. Koch,
       J. Kongsted, A. Krapp, K. Kristensen, A. Ligabue,
       O. B. Lutnaes, J. I. Melo, K. V. Mikkelsen, R. H. Myhre,
       C. Neiss, C. B. Nielsen, P. Norman, J. Olsen,
       J. M. H. Olsen, A. Osted, M. J. Packer, F. Pawlowski,
       T. B. Pedersen, P. F. Provasi, S. Reine, Z. Rinkevicius,
       T. A. Ruden, K. Ruud, V. Rybkin, P. Salek, C. C. M. Samson,
       A. Sanchez de Meras, T. Saue, S. P. A. Sauer,
       B. Schimmelpfennig, K. Sneskov, A. H. Steindal,
       K. O. Sylvester-Hvid, P. R. Taylor, A. M. Teale,
       E. I. Tellgren, D. P. Tew, A. J. Thorvaldsen, L. Thoegersen,
       O. Vahtras, M. A. Watson, D. J. D. Wilson, M. Ziolkowski
       and H. Agren,
       "The Dalton quantum chemistry program system",
       WIREs Comput. Mol. Sci. 2014, 4:269–284 (doi: 10.1002/wcms.1172)
     
    and
     
       Dalton, a molecular electronic structure program,
       Release Dalton2020.0 (2020), see http://daltonprogram.org
   ----------------------------------------------------------------------------

    Authors in alphabetical order (Major contribution(s) in parenthesis):

  Kestutis Aidas,           Vilnius University,           Lithuania   (QM/MM)
  Celestino Angeli,         University of Ferrara,        Italy       (NEVPT2)
  Keld L. Bak,              UNI-C,                        Denmark     (AOSOPPA, non-adiabatic coupling, magnetic properties)
  Vebjoern Bakken,          University of Oslo,           Norway      (DALTON; geometry optimizer, symmetry detection)
  Radovan Bast,             UiT The Arctic U. of Norway,  Norway      (DALTON installation and execution frameworks)
  Pablo Baudin,             University of Valencia,       Spain       (Cholesky excitation energies)
  Linus Boman,              NTNU,                         Norway      (Cholesky decomposition and subsystems)
  Bruno N. Cabral Tenorio,  Technical Univ. of Denmark,   Denmark     (Lanczos-based CC methods)
  Ove Christiansen,         Aarhus University,            Denmark     (CC module)
  Renzo Cimiraglia,         University of Ferrara,        Italy       (NEVPT2)
  Sonia Coriani,            Technical Univ. of Denmark,   Denmark     (CC and RESPONS modules)
  Janusz Cukras,            University of Warsaw,         Poland      (MChD in RESPONS)
  Paal Dahle,               University of Oslo,           Norway      (Parallelization)
  Erik K. Dalskov,          UNI-C,                        Denmark     (SOPPA)
  Thomas Enevoldsen,        Univ. of Southern Denmark,    Denmark     (SOPPA)
  Janus J. Eriksen,         Aarhus University,            Denmark     (Polarizable embedding, TDA)
  Rasmus Faber,             Technical Univ. of Denmark,   Denmark     (Vib.avg. NMR w. SOPPA, parallel AO-SOPPA, CVS-CC and EOMCC)
  Tobias Fahleson,          KTH Stockholm,                Sweden      (Damped cubic response)
  Berta Fernandez,          U. of Santiago de Compostela, Spain       (Doublet spin, ESR in RESPONS)
  Lara Ferrighi,            Aarhus University,            Denmark     (PCM Cubic response)
  Heike Fliegl,             University of Oslo,           Norway      (CCSD(R12))
  Luca Frediani,            UiT The Arctic U. of Norway,  Norway      (PCM)
  Emmanuel Fromager,        Univ. Strasbourg,             France      (MC-srDFT)
  Bin Gao,                  UiT The Arctic U. of Norway,  Norway      (Gen1Int library)
  Andre S. P. Gomes,        CNRS/Universite de Lille,     France      (Frozen density embedding)
  Christof Haettig,         Ruhr-University Bochum,       Germany     (CC module)
  Kasper Hald,              Aarhus University,            Denmark     (CC module)
  Asger Halkier,            Aarhus University,            Denmark     (CC module)
  Frederik Beyer Hansen,    University of Copenhagen,     Denmark     (Parallel AO-SOPPA)
  Erik D. Hedegaard,        Univ. of Southern Denmark,    Denmark     (Polarizable embedding, QM/MM, and MC-srDFT)
  Hanne Heiberg,            University of Oslo,           Norway      (Geometry analysis, selected one-electron integrals)
  Trygve Helgaker,          University of Oslo,           Norway      (DALTON; ABACUS, ERI, DFT modules, London, and much more)
  Alf Christian Hennum,     University of Oslo,           Norway      (Parity violation)
  Hinne Hettema,            University of Auckland,       New Zealand (Quadratic response in RESPONS; SIRIUS supersymmetry)
  Eirik Hjertenaes,         NTNU,                         Norway      (Cholesky decomposition)
  Pi A. B. Haase,           University of Copenhagen,     Denmark     (Triplet AO-SOPPA)
  Maria Francesca Iozzi,    University of Oslo,           Norway      (RPA)
  Christoph Jacob           TU Braunschweig               Germany     (Frozen density embedding)
  Brano Jansik              Technical Univ. of Ostrava    Czech Rep.  (DFT cubic response)
  Hans Joergen Aa. Jensen,  Univ. of Southern Denmark,    Denmark     (DALTON; SIRIUS, RESPONS, ABACUS, MC-srDFT, and much more)
  Dan Jonsson,              UiT The Arctic U. of Norway,  Norway      (Cubic response in RESPONS module)
  Poul Joergensen,          Aarhus University,            Denmark     (RESPONS, ABACUS, and CC modules)
  Maciej Kaminski,          University of Warsaw,         Poland      (CPPh in RESPONS)
  Joanna Kauczor,           Linkoeping University,        Sweden      (Complex polarization propagator (CPP) module)
  Sheela Kirpekar,          Univ. of Southern Denmark,    Denmark     (Mass-velocity & Darwin integrals)
  Erik Kjellgren,           Univ. of Southern Denmark,    Denmark     (MC-srDFT)
  Wim Klopper,              KIT Karlsruhe,                Germany     (R12 code in CC, SIRIUS, and ABACUS modules)
  Stefan Knecht,            ETH Zurich,                   Switzerland (Parallel CI and MCSCF, MC-srDFT)
  Rika Kobayashi,           Australian National Univ.,    Australia   (DIIS in CC, London in MCSCF)
  Henrik Koch,              NTNU,                         Norway      (CC module, Cholesky decomposition)
  Jacob Kongsted,           Univ. of Southern Denmark,    Denmark     (Polarizable embedding, polarizable density embedding, QM/MM)
  Andrea Ligabue,           University of Modena,         Italy       (CTOCD, AOSOPPA)
  Nanna H. List             Univ. of Southern Denmark,    Denmark     (Polarizable embedding)
  Ola B. Lutnaes,           University of Oslo,           Norway      (DFT Hessian)
  Juan I. Melo,             University of Buenos Aires,   Argentina   (LRESC, Relativistic Effects on NMR Shieldings)
  Kurt V. Mikkelsen,        University of Copenhagen,     Denmark     (MC-SCRF and QM/MM)
  Rolf H. Myhre,            NTNU,                         Norway      (Subsystems and CC3)
  Christian Neiss,          Univ. Erlangen-Nuernberg,     Germany     (CCSD(R12))
  Christian B. Nielsen,     University of Copenhagen,     Denmark     (QM/MM)
  Patrick Norman,           KTH Stockholm,                Sweden      (Cubic response and complex frequency response in RESPONS)
  Jeppe Olsen,              Aarhus University,            Denmark     (SIRIUS CI/density modules)
  Jogvan Magnus H. Olsen,   Aarhus University,            Denmark     (Polarizable embedding and polarizable density embedding)
  Anders Osted,             Copenhagen University,        Denmark     (QM/MM)
  Martin J. Packer,         University of Sheffield,      UK          (SOPPA)
  Filip Pawlowski,          Kazimierz Wielki University,  Poland      (CC3)
  Morten N. Pedersen,       Univ. of Southern Denmark,    Denmark     (Polarizable embedding)
  Thomas B. Pedersen,       University of Oslo,           Norway      (Cholesky decomposition)
  Patricio F. Provasi,      University of Northeastern,   Argentina   (Analysis of coupling constants in localized orbitals)
  Peter Reinholdt,          Univ. of Southern Denmark,    Denmark     (Polarizable embedding and polarizable density embedding)
  Zilvinas Rinkevicius,     KTH Stockholm,                Sweden      (open-shell DFT, ESR)
  Elias Rudberg,            KTH Stockholm,                Sweden      (DFT grid and basis info)
  Torgeir A. Ruden,         University of Oslo,           Norway      (Numerical derivatives in ABACUS)
  Kenneth Ruud,             UiT The Arctic U. of Norway,  Norway      (DALTON; ABACUS magnetic properties and much more)
  Pawel Salek,              KTH Stockholm,                Sweden      (DALTON; DFT code)
  Claire C. M. Samson       University of Karlsruhe       Germany     (Boys localization, r12 integrals in ERI)
  Alfredo Sanchez de Meras, University of Valencia,       Spain       (CC module, Cholesky decomposition)
  Trond Saue,               Paul Sabatier University,     France      (direct Fock matrix construction)
  Stephan P. A. Sauer,      University of Copenhagen,     Denmark     (SOPPA(CCSD), SOPPA prop., AOSOPPA, vibrational g-factors)
  Bernd Schimmelpfennig,    Forschungszentrum Karlsruhe,  Germany     (AMFI module)
  Anna K. Schnack-Petersen, University of Copenhagen,     Denmark     (RPA(D) and HRPA(D) properties in AOSOPPA)
  Kristian Sneskov,         Aarhus University,            Denmark     (Polarizable embedding, QM/MM)
  Arnfinn H. Steindal,      UiT The Arctic U. of Norway,  Norway      (parallel QM/MM, polarizable embedding)
  Casper Steinmann,         Aalborg University,           Denmark     (QFIT, polarizable embedding)
  K. O. Sylvester-Hvid,     University of Copenhagen,     Denmark     (MC-SCRF)
  Peter R. Taylor,          VLSCI/Univ. of Melbourne,     Australia   (Symmetry handling ABACUS, integral transformation)
  Andrew M. Teale,          University of Nottingham,     England     (DFT-AC, DFT-D)
  David P. Tew,             University of Bristol,        England     (CCSD(R12))
  Julien Toulouse,          Sorbonne Univ.,               France      (MC-srDFT)
  Olav Vahtras,             KTH Stockholm,                Sweden      (Triplet response, spin-orbit, ESR, TDDFT, open-shell DFT)
  Lucas Visscher,           Vrije Universiteit Amsterdam, Netherlands (Frozen density embedding)
  David J. Wilson,          La Trobe University,          Australia   (DFT Hessian and DFT magnetizabilities)
  Hans Agren,               KTH Stockholm,                Sweden      (SIRIUS module, RESPONS, MC-SCRF solvation)
 --------------------------------------------------------------------------------

     Date and time (Linux)  : Fri May  2 13:59:58 2025
     Host name              : xm046                                   

 * Work memory size             :  1310720000 =  9.766 gigabytes.

 * Directories for basis set searches:
   1) /gpfs/projects/rjh/adrian/summer2025/beta_projects/raw_data/NLO/dalton/hf/n15/excited-state
   2) /gpfs/projects/rjh/adrian/dalton/build/basis


Compilation information
-----------------------

 Who compiled             | ahurtado
 Host                     | milan2
 System                   | Linux-5.14.0-427.42.1.el9_4.x86_64
 CMake generator          | Unix Makefiles
 Processor                | x86_64
 64-bit integers          | OFF
 MPI                      | ON
 Fortran compiler         | /gpfs/software/openmpi/milan/gcc13.2/4.1.6/bin/mpi
                          | f90
 Fortran compiler version | GNU Fortran (GCC) 13.2.0
 C compiler               | /gpfs/software/openmpi/milan/gcc13.2/4.1.6/bin/mpi
                          | cc
 C compiler version       | gcc (GCC) 13.2.0
 C++ compiler             | /gpfs/software/openmpi/milan/gcc13.2/4.1.6/bin/mpi
                          | cxx
 C++ compiler version     | unknown
 BLAS                     | /gpfs/software/intel/oneAPI/2024_2/mkl/2024.2/lib/
                          | intel64/libmkl_gf_lp64.so;/gpfs/software/intel/one
                          | API/2024_2/mkl/2024.2/lib/intel64/libmkl_sequentia
                          | l.so;/gpfs/software/intel/oneAPI/2024_2/mkl/2024.2
                          | /lib/intel64/libmkl_core.so;/usr/lib64/libpthread.
                          | a;/usr/lib64/libm.so
 LAPACK                   | /gpfs/software/intel/oneAPI/2024_2/mkl/2024.2/lib/
                          | intel64/libmkl_lapack95_lp64.a;/gpfs/software/inte
                          | l/oneAPI/2024_2/mkl/2024.2/lib/intel64/libmkl_gf_l
                          | p64.so
 Static linking           | OFF
 Last Git revision        | 66052b3af5ea7225e31178bf9a8b031913c72190
 Git branch               | (HEAD detached at Dalton2020.0)
 Configuration time       | 2025-04-10 16:02:31.569498

 * MPI parallel run using 96 processes.


   Content of the .dal input file
 ----------------------------------

**DALTON INPUT
.RUN PROPERTIES
.DIRECT
**WAVE FUNCTIONS
.HF
**PROPERTIES
.EXCITA
*EXCITA
.NEXCIT
   4  4  4  4  4  4  4  4  4  4
**END OF DALTON INPUT


   Content of the .mol file
 ----------------------------

BASIS
aug-cc-pVTZ
blah
blah
Atomtype=4 Angstrom Charge=0 Nosymmetry
Charge=6 Atoms=30
C_a 0.5087160023080569 0.5307419982654954 0.0
C_b -0.1499670011342733 1.740530998481664 0.0
C_c 0.5119900005433838 3.0154770012609258 0.0
C_d -0.14944499956657997 4.223794999958646 0.0
C_e 0.5087160023080569 5.5007790017622735 0.0
C_f -0.15645499949278127 6.70694700107899 0.0
C_g 0.496456998377322 7.986875000917598 0.0
C_h -0.17400999836435735 9.189824999531421 0.0
C_i 0.47132300178377173 10.474130998852887 0.0
C_j -0.2068789994133594 11.672133000043152 0.0
C_k 0.42695900169371165 12.963178002349462 0.0
C_l -0.2632879988783874 14.153069997653931 0.0
C_m 0.35120499794075105 15.455243998875314 0.0
C_n -0.36116400191834624 16.629613998899707 0.0
C_o 0.2148920018246646 17.950934002027175 0.0
C_p -0.5556280012510373 19.08327400155043 0.0
C_q 0.4403500003464234 -9.404932000765008 0.0
C_r -0.20688099970321575 -8.191118999452831 0.0
C_s 0.46789400225166755 -6.921341999667393 0.0
C_t -0.18363100098218124 -5.708749000539099 0.0
C_u 0.48693599966877055 -4.437578999956066 0.0
C_v -0.1673289984935738 -3.225871002086668 0.0
C_w 0.5002509978904859 -1.953576002504383 0.0
C_x -0.15619899943357543 -0.7427290024156055 0.0
C_y 0.32798999900043024 -14.37061399752873 0.0
C_z -0.29751000021963053 -13.151493999681502 0.0
C_{ 0.39785000052208785 -11.88837100114556 0.0
C_| -0.24155599790388085 -10.672447000812804 0.0
C_} 0.20156300157395496 -16.83078200143653 0.0
C_~ -0.40155999844483 -15.619834002585321 0.0
Charge=7 Atoms=2
N_a -0.09696999873757071 20.37312500014922 0.0
N_b -0.5807609976996594 -18.06222600205128 0.0
Charge=8 Atoms=2
O_a 0.07628000060859447 -19.110176000371915 0.0
O_b -1.8112740009723618 -17.986109998752045 0.0
Charge=1 Atoms=32
H_a 1.6086990009007216 0.5317860014008821 0.0
H_b -1.2501259987754347 1.7382580024415848 0.0
H_c 1.6119779998606896 3.0190289974521063 0.0
H_d -1.2496410025700835 4.218624001966738 0.0
H_e 1.6086899995963682 5.507636000681553 0.0
H_f -1.2566919978547957 6.697789002061642 0.0
H_g 1.5963839994375535 7.998350002351865 0.0
H_h -1.2742840020887138 9.174934000449117 0.0
H_i 1.571137002342437 10.492289000447794 0.0
H_j -1.3071659997300098 11.648617999958557 0.0
H_k 1.526492998714895 12.991507001604333 0.0
H_l -1.3634870023166756 14.115234001719507 0.0
H_m 1.4498889987755237 15.501239002505242 0.0
H_n -1.4603910020725315 16.563519998124995 0.0
H_o 1.3095540018532839 18.043885000393377 0.0
H_p -1.648976001347842 18.990835998155795 0.0
H_q 1.539988001856592 -9.416521997698926 0.0
H_r -1.3069210012650139 -8.182631002285456 0.0
H_s 1.5677139983881296 -6.927825002593033 0.0
H_t -1.2837070024696213 -5.704036000131253 0.0
H_u 1.5868459982652234 -4.440977000287169 0.0
H_v -1.267429998312446 -3.223699999662173 0.0
H_w 1.6002089981517185 -1.9546869994746403 0.0
H_x -1.256326997873736 -0.7427049989373296 0.0
H_y 1.4258090014748694 -14.4090960024184 0.0
H_z -1.397044002532586 -13.125649000587696 0.0
H_{ 1.497090002560339 -11.909379997880672 0.0
H_| -1.341505002152532 -10.657317998988228 0.0
H_} 1.2776720009705351 -17.01445999864679 0.0
H_~ -1.49798800041153 -15.5961169996841 0.0
H_ 0.8943369979554827 20.570428998319677 0.0
H_ -0.7362980017344588 21.15248999921393 0.0


       *******************************************************************
       *********** Output from DALTON general input processing ***********
       *******************************************************************

 --------------------------------------------------------------------------------
   Overall default print level:    0
   Print level for DALTON.STAT:    1

    Parallel calculation using MPI
    AO-direct calculation (in sections where implemented)
    HERMIT 1- and 2-electron integral sections will be executed
    "Old" integral transformation used (limited to max 255 basis functions)
    Wave function sections will be executed (SIRIUS module)
    Static molecular property section will be executed (ABACUS module)
 --------------------------------------------------------------------------------


   ****************************************************************************
   *************** Output of molecule and basis set information ***************
   ****************************************************************************


    The two title cards from your ".mol" input:
    ------------------------------------------------------------------------
 1: blah                                                                    
 2: blah                                                                    
    ------------------------------------------------------------------------

  Coordinates are entered in Angstrom and converted to atomic units.
          - Conversion factor : 1 bohr = 0.52917721 A

  Atomic type no.    1
  --------------------
  Nuclear charge:   6.00000
  Number of symmetry independent centers:   30
  Number of basis sets to read;    2
  Basis set file used for this atomic type with Z =   6 :
     "/gpfs/projects/rjh/adrian/dalton/build/basis/aug-cc-pVTZ"

  Atomic type no.    2
  --------------------
  Nuclear charge:   7.00000
  Number of symmetry independent centers:    2
  Number of basis sets to read;    2
  Basis set file used for this atomic type with Z =   7 :
     "/gpfs/projects/rjh/adrian/dalton/build/basis/aug-cc-pVTZ"

  Atomic type no.    3
  --------------------
  Nuclear charge:   8.00000
  Number of symmetry independent centers:    2
  Number of basis sets to read;    2
  Basis set file used for this atomic type with Z =   8 :
     "/gpfs/projects/rjh/adrian/dalton/build/basis/aug-cc-pVTZ"

  Atomic type no.    4
  --------------------
  Nuclear charge:   1.00000
  Number of symmetry independent centers:   32
  Number of basis sets to read;    2
  Basis set file used for this atomic type with Z =   1 :
     "/gpfs/projects/rjh/adrian/dalton/build/basis/aug-cc-pVTZ"


                         SYMGRP: Point group information
                         -------------------------------

@    Point group: C1 


                                 Isotopic Masses
                                 ---------------

                           C_a        12.000000
                           C_b        12.000000
                           C_c        12.000000
                           C_d        12.000000
                           C_e        12.000000
                           C_f        12.000000
                           C_g        12.000000
                           C_h        12.000000
                           C_i        12.000000
                           C_j        12.000000
                           C_k        12.000000
                           C_l        12.000000
                           C_m        12.000000
                           C_n        12.000000
                           C_o        12.000000
                           C_p        12.000000
                           C_q        12.000000
                           C_r        12.000000
                           C_s        12.000000
                           C_t        12.000000
                           C_u        12.000000
                           C_v        12.000000
                           C_w        12.000000
                           C_x        12.000000
                           C_y        12.000000
                           C_z        12.000000
                           C_{        12.000000
                           C_|        12.000000
                           C_}        12.000000
                           C_~        12.000000
                           N_a        14.003074
                           N_b        14.003074
                           O_a        15.994915
                           O_b        15.994915
                           H_a         1.007825
                           H_b         1.007825
                           H_c         1.007825
                           H_d         1.007825
                           H_e         1.007825
                           H_f         1.007825
                           H_g         1.007825
                           H_h         1.007825
                           H_i         1.007825
                           H_j         1.007825
                           H_k         1.007825
                           H_l         1.007825
                           H_m         1.007825
                           H_n         1.007825
                           H_o         1.007825
                           H_p         1.007825
                           H_q         1.007825
                           H_r         1.007825
                           H_s         1.007825
                           H_t         1.007825
                           H_u         1.007825
                           H_v         1.007825
                           H_w         1.007825
                           H_x         1.007825
                           H_y         1.007825
                           H_z         1.007825
                           H_{         1.007825
                           H_|         1.007825
                           H_}         1.007825
                           H_~         1.007825
                           H_         1.007825
                           H_        1.007825

                       Total mass:   452.246378 amu
                       Natural abundance:  70.550 %

 Center-of-mass coordinates (a.u.):   -0.011475   -0.312820    0.000000
 Center-of-mass coordinates (Angs):   -0.006072   -0.165537    0.000000


  Atoms and basis sets
  --------------------

  Number of atom types :    4
  Total number of atoms:   66

  Basis set used is "aug-cc-pVTZ" from the basis set library.

  label    atoms   charge   prim   cont     basis
  ----------------------------------------------------------------------
  C_         30    6.0000    58    46      [11s6p3d2f|5s4p3d2f]                               
  N_          2    7.0000    58    46      [11s6p3d2f|5s4p3d2f]                               
  O_          2    8.0000    58    46      [11s6p3d2f|5s4p3d2f]                               
  H_         32    1.0000    25    23      [6s3p2d|4s3p2d]                                    
  ----------------------------------------------------------------------
  total:     66  242.0000  2772  2300
  ----------------------------------------------------------------------
  Spherical harmonic basis used.

  Threshold for neglecting AO integrals:  1.00D-12

  Max    interatomic separation is   40.2709 Angstrom (   76.1009 Bohr)
  between atoms   66 and   33, "H_  " and "O_a   ".

  Min HX interatomic separation is    1.0080 Angstrom (    1.9049 Bohr)

  Min YX interatomic separation is    1.2329 Angstrom (    2.3298 Bohr)


  Bond distances (Angstrom):
  --------------------------

                  atom 1     atom 2       distance
                  ------     ------       --------
  bond distance:  C_b        C_a          1.377481
  bond distance:  C_c        C_b          1.436549
  bond distance:  C_d        C_c          1.377508
  bond distance:  C_e        C_d          1.436615
  bond distance:  C_f        C_e          1.377423
  bond distance:  C_g        C_f          1.436840
  bond distance:  C_h        C_g          1.377176
  bond distance:  C_i        C_h          1.437323
  bond distance:  C_j        C_i          1.376651
  bond distance:  C_k        C_j          1.438245
  bond distance:  C_l        C_k          1.375603
  bond distance:  C_m        C_l          1.439882
  bond distance:  C_n        C_m          1.373541
  bond distance:  C_o        C_n          1.441432
  bond distance:  C_p        C_o          1.369633
  bond distance:  C_r        C_q          1.375591
  bond distance:  C_s        C_r          1.437934
  bond distance:  C_t        C_s          1.376542
  bond distance:  C_u        C_t          1.437196
  bond distance:  C_v        C_u          1.377062
  bond distance:  C_w        C_v          1.436801
  bond distance:  C_x        C_a          1.436607
  bond distance:  C_x        C_w          1.377344
  bond distance:  C_z        C_y          1.370220
  bond distance:  C_{        C_z          1.441876
  bond distance:  C_|        C_q          1.439302
  bond distance:  C_|        C_{          1.373794
  bond distance:  C_~        C_y          1.446649
  bond distance:  C_~        C_}          1.352831
  bond distance:  N_a        C_p          1.368971
  bond distance:  N_b        C_}          1.458933
  bond distance:  O_a        N_b          1.236892
  bond distance:  O_b        N_b          1.232865
  bond distance:  H_a        C_a          1.099983
  bond distance:  H_b        C_b          1.100161
  bond distance:  H_c        C_c          1.099994
  bond distance:  H_d        C_d          1.100208
  bond distance:  H_e        C_e          1.099995
  bond distance:  H_f        C_f          1.100275
  bond distance:  H_g        C_g          1.099987
  bond distance:  H_h        C_h          1.100375
  bond distance:  H_i        C_i          1.099964
  bond distance:  H_j        C_j          1.100538
  bond distance:  H_k        C_k          1.099899
  bond distance:  H_l        C_l          1.100849
  bond distance:  H_m        C_m          1.099646
  bond distance:  H_n        C_n          1.101212
  bond distance:  H_o        C_o          1.098601
  bond distance:  H_p        C_p          1.097249
  bond distance:  H_q        C_q          1.099699
  bond distance:  H_r        C_r          1.100073
  bond distance:  H_s        C_s          1.099839
  bond distance:  H_t        C_t          1.100086
  bond distance:  H_u        C_u          1.099915
  bond distance:  H_v        C_v          1.100103
  bond distance:  H_w        C_w          1.099959
  bond distance:  H_x        C_x          1.100128
  bond distance:  H_y        C_y          1.098493
  bond distance:  H_z        C_z          1.099838
  bond distance:  H_{        C_{          1.099441
  bond distance:  H_|        C_|          1.100053
  bond distance:  H_}        C_}          1.091672
  bond distance:  H_~        C_~          1.096684
  bond distance:  H_        N_a          1.010751
  bond distance:  H_       N_a          1.008043


  Bond angles (degrees):
  ----------------------

                  atom 1     atom 2     atom 3         angle
                  ------     ------     ------         -----
  bond angle:     C_b        C_a        C_x          123.863
  bond angle:     C_b        C_a        H_a          118.512
  bond angle:     C_x        C_a        H_a          117.625
  bond angle:     C_a        C_b        C_c          123.995
  bond angle:     C_a        C_b        H_b          118.448
  bond angle:     C_c        C_b        H_b          117.557
  bond angle:     C_b        C_c        C_d          123.865
  bond angle:     C_b        C_c        H_c          117.624
  bond angle:     C_d        C_c        H_c          118.511
  bond angle:     C_c        C_d        C_e          124.037
  bond angle:     C_c        C_d        H_d          118.427
  bond angle:     C_e        C_d        H_d          117.536
  bond angle:     C_d        C_e        C_f          123.858
  bond angle:     C_d        C_e        H_e          117.624
  bond angle:     C_f        C_e        H_e          118.518
  bond angle:     C_e        C_f        C_g          124.098
  bond angle:     C_e        C_f        H_f          118.399
  bond angle:     C_g        C_f        H_f          117.504
  bond angle:     C_f        C_g        C_h          123.840
  bond angle:     C_f        C_g        H_g          117.625
  bond angle:     C_h        C_g        H_g          118.535
  bond angle:     C_g        C_h        C_i          124.188
  bond angle:     C_g        C_h        H_h          118.358
  bond angle:     C_i        C_h        H_h          117.454
  bond angle:     C_h        C_i        C_j          123.807
  bond angle:     C_h        C_i        H_i          117.624
  bond angle:     C_j        C_i        H_i          118.569
  bond angle:     C_i        C_j        C_k          124.337
  bond angle:     C_i        C_j        H_j          118.290
  bond angle:     C_k        C_j        H_j          117.373
  bond angle:     C_j        C_k        C_l          123.734
  bond angle:     C_j        C_k        H_k          117.625
  bond angle:     C_l        C_k        H_k          118.642
  bond angle:     C_k        C_l        C_m          124.620
  bond angle:     C_k        C_l        H_l          118.148
  bond angle:     C_m        C_l        H_l          117.232
  bond angle:     C_l        C_m        C_n          123.497
  bond angle:     C_l        C_m        H_m          117.660
  bond angle:     C_n        C_m        H_m          118.844
  bond angle:     C_m        C_n        C_o          125.203
  bond angle:     C_m        C_n        H_n          117.800
  bond angle:     C_o        C_n        H_n          116.997
  bond angle:     C_n        C_o        C_p          122.210
  bond angle:     C_n        C_o        H_o          118.409
  bond angle:     C_p        C_o        H_o          119.380
  bond angle:     C_o        C_p        N_a          126.191
  bond angle:     C_o        C_p        H_p          119.401
  bond angle:     N_a        C_p        H_p          114.407
  bond angle:     C_r        C_q        C_|          123.653
  bond angle:     C_r        C_q        H_q          118.671
  bond angle:     C_|        C_q        H_q          117.676
  bond angle:     C_q        C_r        C_s          123.946
  bond angle:     C_q        C_r        H_r          118.510
  bond angle:     C_s        C_r        H_r          117.545
  bond angle:     C_r        C_s        C_t          123.764
  bond angle:     C_r        C_s        H_s          117.649
  bond angle:     C_t        C_s        H_s          118.587
  bond angle:     C_s        C_t        C_u          123.938
  bond angle:     C_s        C_t        H_t          118.495
  bond angle:     C_u        C_t        H_t          117.567
  bond angle:     C_t        C_u        C_v          123.821
  bond angle:     C_t        C_u        H_u          117.636
  bond angle:     C_v        C_u        H_u          118.544
  bond angle:     C_u        C_v        C_w          123.947
  bond angle:     C_u        C_v        H_v          118.480
  bond angle:     C_w        C_v        H_v          117.573
  bond angle:     C_v        C_w        C_x          123.850
  bond angle:     C_v        C_w        H_w          117.628
  bond angle:     C_x        C_w        H_w          118.522
  bond angle:     C_a        C_x        C_w          123.966
  bond angle:     C_a        C_x        H_x          117.569
  bond angle:     C_w        C_x        H_x          118.465
  bond angle:     C_z        C_y        C_~          122.554
  bond angle:     C_z        C_y        H_y          119.169
  bond angle:     C_~        C_y        H_y          118.278
  bond angle:     C_y        C_z        C_{          124.006
  bond angle:     C_y        C_z        H_z          118.508
  bond angle:     C_{        C_z        H_z          117.487
  bond angle:     C_z        C_{        C_|          123.429
  bond angle:     C_z        C_{        H_{          117.738
  bond angle:     C_|        C_{        H_{          118.833
  bond angle:     C_q        C_|        C_{          123.982
  bond angle:     C_q        C_|        H_|          117.492
  bond angle:     C_{        C_|        H_|          118.526
  bond angle:     C_~        C_}        N_b          121.097
  bond angle:     C_~        C_}        H_}          126.162
  bond angle:     N_b        C_}        H_}          112.741
  bond angle:     C_y        C_~        C_}          123.239
  bond angle:     C_y        C_~        H_~          119.046
  bond angle:     C_}        C_~        H_~          117.715
  bond angle:     C_p        N_a        H_          120.832
  bond angle:     C_p        N_a        H_         121.062
  bond angle:     H_        N_a        H_         118.106
  bond angle:     C_}        N_b        O_a          115.486
  bond angle:     C_}        N_b        O_b          118.888
  bond angle:     O_a        N_b        O_b          125.626




 Principal moments of inertia (u*A**2) and principal axes
 --------------------------------------------------------

   IA     163.817506          0.007878    0.999969    0.000000
   IB   67827.654029          0.999969   -0.007878    0.000000
   IC   67991.471534          0.000000    0.000000    1.000000


 Rotational constants
 --------------------

@    The molecule is planar.

               A                   B                   C

           3085.0122              7.4509              7.4330 MHz
            0.102905            0.000249            0.000248 cm-1


@  Nuclear repulsion energy : 2233.399100428078 Hartree


                     .---------------------------------------.
                     | Starting in Integral Section (HERMIT) |
                     `---------------------------------------'



 ***************************************************************************************
 ****************** Output from **INTEGRALS input processing (HERMIT) ******************
 ***************************************************************************************


 - Using defaults, no **INTEGRALS input found

 Default print level:        1

 Calculation of one-electron Hamiltonian integrals.

 Center of mass  (bohr):     -0.011474676929     -0.312820016859      0.000000000000
 Operator center (bohr):      0.000000000000      0.000000000000      0.000000000000
 Gauge origin    (bohr):      0.000000000000      0.000000000000      0.000000000000
 Dipole origin   (bohr):      0.000000000000      0.000000000000      0.000000000000


     ************************************************************************
     ************************** Output from HERINT **************************
     ************************************************************************



                      Nuclear contribution to dipole moments
                      --------------------------------------

                 au               Debye          C m (/(10**-30)

      x     -0.00004330        -0.00011006        -0.00036711
      y      0.00002825         0.00007180         0.00023951
      z      0.00000000         0.00000000         0.00000000


  Time used in ONEDRV     is       9.01 seconds
  Time used in HUCKEL     is       1.86 seconds
  Time used in OVERLAP    is       1.02 seconds
  Time used in POPOVLP    is       1.97 seconds
  Time used in R2         is       1.19 seconds
  Time used in R4         is       1.36 seconds
  Time used in DIPLEN     is       1.74 seconds
  Time used in QUADRUP    is       3.30 seconds
  Time used in KINENE     is       1.54 seconds
  Time used in GABGEN     is       9.50 seconds
  Total CPU  time used in HERMIT:  32.49 seconds
  Total wall time used in HERMIT:  32.80 seconds


                        .----------------------------------.
                        | End of Integral Section (HERMIT) |
                        `----------------------------------'



                   .--------------------------------------------.
                   | Starting in Wave Function Section (SIRIUS) |
                   `--------------------------------------------'



@ Primary orbitals are deleted during canonical orthonormalization
@   because of detected numerical linear dependence or too large coefficients.
@ Eigenvalue threshold for num. lin. dep. =  1.00D-06

@  14 MO components are deleted in symmetry    1
 Overlap eigenvalues of the deleted orbitals:
  9.93D-07  8.14D-07  8.07D-07  7.57D-07  6.71D-07
  6.60D-07  5.42D-07  5.34D-07  4.14D-07  4.09D-07
  3.12D-07  1.94D-07  9.74D-08  2.67D-08

 Max MO coeff. of last deleted MO & limit:  2.41D+02  1.00D+03

WARNING: Orbitals have been deleted because of numerical
   linear dependence although not requested in input.

 *** Output from Huckel module :

     Using EWMO model:          T
     Using EHT  model:          F
     Number of Huckel orbitals each symmetry:  202

 EWMO - Energy Weighted Maximum Overlap - is a Huckel type method,
        which normally is better than Extended Huckel Theory.
 Reference: Linderberg and Ohrn, Propagators in Quantum Chemistry (Wiley, 1973)

 Huckel EWMO eigenvalues for symmetry :  1
          -20.684753     -20.683498     -15.677080     -15.674960     -11.359418
          -11.359392     -11.359222     -11.359177     -11.358955     -11.358869
          -11.358774     -11.358279     -11.357491     -11.356516     -11.355404
          -11.354215     -11.353009     -11.351853     -11.350860     -11.348664
          -11.348020     -11.347329     -11.346712     -11.346203     -11.345813
          -11.345547     -11.345487     -11.345453     -11.345371     -11.345357
          -11.345264     -11.345249     -11.345181     -11.345177      -1.964049
           -1.792974      -1.790903      -1.786019      -1.776313      -1.759863
           -1.734941      -1.700402      -1.655928      -1.602077      -1.540229
           -1.473584      -1.443213      -1.395679      -1.320924      -1.244704
           -1.212890      -1.196939      -1.174637      -1.165822      -1.138892
           -1.098937      -1.093876      -1.053279      -1.021317      -1.002628
           -0.963387      -0.944684      -0.912048      -0.885728      -0.864035
           -0.852027      -0.837425      -0.821219      -0.811603      -0.785245
           -0.773057      -0.753942      -0.747002      -0.741859      -0.729073
           -0.699698      -0.695555      -0.678064      -0.668693      -0.667047
           -0.646775      -0.632272      -0.631024      -0.617404      -0.596616
           -0.596150      -0.587054      -0.585351      -0.560813      -0.559863
           -0.551682      -0.542237      -0.528809      -0.524270      -0.521889
           -0.509108      -0.504556      -0.495728      -0.493814      -0.492698
           -0.489789      -0.488775      -0.487617      -0.484431      -0.482480
           -0.479573      -0.477583      -0.477166      -0.474145      -0.473972
           -0.457048      -0.454765      -0.428620      -0.426528      -0.405074
           -0.398600      -0.385539      -0.373512      -0.370889      -0.361776
           -0.351565      -0.336028      -0.308348      -0.290464      -0.274062
           -0.259482      -0.246722      -0.235703      -0.229150      -0.226313
           -0.218424      -0.211898      -0.206594      -0.202373      -0.200878
           -0.199109      -0.196691      -0.195029      -0.194058      -0.190598
           -0.166740      -0.142717      -0.139028      -0.135733      -0.133586
           -0.132097      -0.131634      -0.131287      -0.130729      -0.130481
           -0.129886      -0.129805      -0.129613      -0.129339      -0.129238
           -0.128777      -0.128170      -0.128020      -0.127528      -0.127490
           -0.126852      -0.126449      -0.126338      -0.125987      -0.125880
           -0.125233      -0.124881      -0.124472      -0.124121      -0.123768
           -0.123598      -0.123200      -0.113023      -0.112311      -0.110173
           -0.108646      -0.106328      -0.104760      -0.102167      -0.101222
           -0.098245      -0.097478      -0.095001      -0.094203      -0.092421
           -0.091346      -0.090267      -0.089161      -0.088377      -0.087549
           -0.086801      -0.086253      -0.085671      -0.085129      -0.084963
           -0.084073      -0.083063      -0.082073      -0.081123      -0.080279
           -0.079641      -0.079330

 **********************************************************************
 *SIRIUS* a direct, restricted step, second order MCSCF program       *
 **********************************************************************

 
     Date and time (Linux)  : Fri May  2 14:12:33 2025
     Host name              : xm046                                   

 Title lines from ".mol" input file:
     blah                                                                    
     blah                                                                    

 Print level on unit LUPRI =   2 is   0
 Print level on unit LUW4  =   2 is   5

@    Restricted, closed shell Hartree-Fock calculation.
 Fock matrices are calculated directly and in parallel without use of integrals on disk.

 Initial molecular orbitals are obtained according to
 ".MOSTART EWMO  " input option

     Wave function specification
     ============================
@    Wave function type        --- HF ---
@    Number of closed shell electrons         242
@    Number of electrons in active shells       0
@    Total charge of the molecule               0

@    Spin multiplicity and 2 M_S                1         0
@    Total number of symmetries                 1 (point group: C1 )
@    Reference state symmetry                   1 (irrep name : A  )

     Orbital specifications
     ======================
@    Abelian symmetry species          All |    1
@                                          |  A  
                                       --- |  ---
@    Occupied SCF orbitals             121 |  121
@    Secondary orbitals               2165 | 2165
@    Total number of orbitals         2286 | 2286
@    Number of basis functions        2300 | 2300

     Optimization information
     ========================
@    Number of configurations                 1
@    Number of orbital rotations         261965
     ------------------------------------------
@    Total number of variables           261966

     Maximum number of Fock   iterations      0
     Maximum number of DIIS   iterations     60
     Maximum number of QC-SCF iterations     60
     Threshold for SCF convergence     1.00D-05


 ***********************************************
 ***** DIIS acceleration of SCF iterations *****
 ***********************************************

 C1-DIIS algorithm; max error vectors =    8

 Iter      Total energy        Error norm    Delta(E)  DIIS dim.
 -----------------------------------------------------------------------------
   1  Screening settings (-IFTHRS, JTDIIS, DIFDEN, times)  -10    1    T  3.16D+02  3.18D+02
@  1    -1408.22706011        8.92053D+00   -1.41D+03    1
      Virial theorem: -V/T =      2.012838
@    MULPOP   C_a    -0.00; C_b     0.04; C_c    -0.00; C_d     0.04; C_e    -0.00; C_f     0.06; C_g     0.01; C_h     0.05; C_i    -0.02; C_j     0.04; 
@             C_k    -0.06; C_l     0.02; C_m    -0.15; C_n    -0.07; C_o    -0.06; C_p     0.32; C_q     0.00; C_r     0.07; C_s     0.02; C_t     0.07; 
@             C_u     0.03; C_v     0.05; C_w     0.01; C_x     0.04; C_y    -0.04; C_z    -0.03; C_{    -0.01; C_|     0.04; C_}     0.18; C_~    -0.03; 
@    MULPOP    dipole moment & components:     39.8894;        2.7401     39.7952      0.0000
   1  Level shift: doubly occupied orbital energies shifted by -2.00D-01
 -----------------------------------------------------------------------------
   2  Screening settings (-IFTHRS, JTDIIS, DIFDEN, times)  -10    2    T  3.26D+02  3.28D+02
@  2    -1412.79705465        3.18341D+00   -4.57D+00    2
      Virial theorem: -V/T =      2.000217
@    MULPOP   C_a    -0.05; C_b    -0.04; C_c    -0.05; C_d    -0.06; C_e    -0.08; C_f    -0.05; C_g    -0.06; C_h    -0.09; C_i    -0.10; C_j    -0.01; 
@             C_k    -0.01; C_l     0.06; C_m     0.00; C_n     0.02; C_o     0.17; C_p    -0.53; C_q    -0.06; C_r    -0.10; C_s    -0.13; C_t    -0.05; 
@             C_u    -0.08; C_v    -0.06; C_w    -0.06; C_x    -0.05; C_y    -0.08; C_z     0.13; C_{    -0.04; C_|    -0.01; C_}    -0.86; C_~     0.21; 
@    MULPOP    dipole moment & components:     13.5390;       -0.0079     13.5390      0.0000
   2  Level shift: doubly occupied orbital energies shifted by -1.00D-01
 -----------------------------------------------------------------------------
   3  Screening settings (-IFTHRS, JTDIIS, DIFDEN, times)  -10    3    T  3.09D+02  3.10D+02
@  3    -1413.33337745        1.18767D+00   -5.36D-01    3
      Virial theorem: -V/T =      2.002018
@    MULPOP   C_a    -0.08; C_b    -0.06; C_c    -0.10; C_d    -0.08; C_e    -0.12; C_f    -0.08; C_g    -0.11; C_h    -0.12; C_i    -0.14; C_j    -0.07; 
@             C_k    -0.07; C_l     0.02; C_m    -0.07; C_n     0.06; C_o     0.02; C_p    -0.41; C_q    -0.08; C_r    -0.12; C_s    -0.15; C_t    -0.08; 
@             C_u    -0.11; C_v    -0.09; C_w    -0.10; C_x    -0.07; C_y    -0.07; C_z     0.13; C_{    -0.06; C_|    -0.03; C_}    -0.61; C_~     0.24; 
@    MULPOP    dipole moment & components:     11.4426;        0.1267     11.4419      0.0000
   3  Level shift: doubly occupied orbital energies shifted by -5.00D-02
 -----------------------------------------------------------------------------
   4  Screening settings (-IFTHRS, JTDIIS, DIFDEN, times)  -10    4    T  2.96D+02  2.98D+02
@  4    -1413.42060807        3.47376D-01   -8.72D-02    4
      Virial theorem: -V/T =      2.003469
@    MULPOP   C_a    -0.09; C_b    -0.06; C_c    -0.11; C_d    -0.09; C_e    -0.13; C_f    -0.09; C_g    -0.12; C_h    -0.12; C_i    -0.15; C_j    -0.07; 
@             C_k    -0.08; C_l     0.02; C_m    -0.08; C_n     0.06; C_o    -0.01; C_p    -0.39; C_q    -0.10; C_r    -0.12; C_s    -0.16; C_t    -0.08; 
@             C_u    -0.12; C_v    -0.09; C_w    -0.11; C_x    -0.07; C_y    -0.10; C_z     0.13; C_{    -0.07; C_|    -0.02; C_}    -0.69; C_~     0.21; 
@    MULPOP    dipole moment & components:      9.6185;       -0.0685      9.6182      0.0000
   4  Level shift: doubly occupied orbital energies shifted by -2.50D-02
 -----------------------------------------------------------------------------
   5  Screening settings (-IFTHRS, JTDIIS, DIFDEN, times)  -14    5    F  4.05D+02  4.07D+02
@  5    -1413.43894281        1.46400D-01   -1.83D-02    5
      Virial theorem: -V/T =      2.002757
@    MULPOP   C_a    -0.10; C_b    -0.06; C_c    -0.12; C_d    -0.09; C_e    -0.14; C_f    -0.10; C_g    -0.13; C_h    -0.13; C_i    -0.16; C_j    -0.08; 
@             C_k    -0.09; C_l     0.02; C_m    -0.09; C_n     0.05; C_o    -0.01; C_p    -0.41; C_q    -0.11; C_r    -0.13; C_s    -0.17; C_t    -0.09; 
@             C_u    -0.13; C_v    -0.10; C_w    -0.12; C_x    -0.08; C_y    -0.11; C_z     0.11; C_{    -0.09; C_|    -0.04; C_}    -0.67; C_~     0.19; 
@    MULPOP    dipole moment & components:      8.6445;       -0.2345      8.6413      0.0000
   5  Level shift: doubly occupied orbital energies shifted by -1.25D-02
 -----------------------------------------------------------------------------
   6  Screening settings (-IFTHRS, JTDIIS, DIFDEN, times)  -14    6    T  3.76D+02  3.78D+02
@  6    -1413.44462239        7.88158D-02   -5.68D-03    6
      Virial theorem: -V/T =      2.002640
@    MULPOP   C_a    -0.10; C_b    -0.07; C_c    -0.12; C_d    -0.10; C_e    -0.14; C_f    -0.10; C_g    -0.13; C_h    -0.13; C_i    -0.16; C_j    -0.09; 
@             C_k    -0.09; C_l     0.02; C_m    -0.09; C_n     0.05; C_o    -0.01; C_p    -0.41; C_q    -0.11; C_r    -0.13; C_s    -0.17; C_t    -0.10; 
@             C_u    -0.13; C_v    -0.10; C_w    -0.12; C_x    -0.08; C_y    -0.11; C_z     0.12; C_{    -0.09; C_|    -0.04; C_}    -0.68; C_~     0.20; 
@    MULPOP    dipole moment & components:      8.0425;       -0.2351      8.0391      0.0000
   6  Level shift: doubly occupied orbital energies shifted by -1.25D-02
 -----------------------------------------------------------------------------
   7  Screening settings (-IFTHRS, JTDIIS, DIFDEN, times)  -14    7    T  3.69D+02  3.70D+02
@  7    -1413.44664445        3.84237D-02   -2.02D-03    7
      Virial theorem: -V/T =      2.002669
@    MULPOP   C_a    -0.10; C_b    -0.07; C_c    -0.11; C_d    -0.10; C_e    -0.14; C_f    -0.10; C_g    -0.13; C_h    -0.13; C_i    -0.16; C_j    -0.09; 
@             C_k    -0.09; C_l     0.02; C_m    -0.09; C_n     0.04; C_o    -0.01; C_p    -0.41; C_q    -0.12; C_r    -0.13; C_s    -0.17; C_t    -0.09; 
@             C_u    -0.13; C_v    -0.10; C_w    -0.12; C_x    -0.08; C_y    -0.11; C_z     0.12; C_{    -0.09; C_|    -0.04; C_}    -0.69; C_~     0.20; 
@    MULPOP    dipole moment & components:      7.6489;       -0.2898      7.6434      0.0000
 -----------------------------------------------------------------------------
   8  Screening settings (-IFTHRS, JTDIIS, DIFDEN, times)  -14    8    T  3.64D+02  3.66D+02
@  8    -1413.44718148        1.70374D-02   -5.37D-04    8
      Virial theorem: -V/T =      2.002661
@    MULPOP   C_a    -0.10; C_b    -0.07; C_c    -0.11; C_d    -0.10; C_e    -0.14; C_f    -0.10; C_g    -0.13; C_h    -0.13; C_i    -0.16; C_j    -0.09; 
@             C_k    -0.09; C_l     0.02; C_m    -0.09; C_n     0.04; C_o    -0.01; C_p    -0.41; C_q    -0.11; C_r    -0.13; C_s    -0.17; C_t    -0.09; 
@             C_u    -0.13; C_v    -0.10; C_w    -0.12; C_x    -0.08; C_y    -0.11; C_z     0.12; C_{    -0.09; C_|    -0.04; C_}    -0.68; C_~     0.20; 
@    MULPOP    dipole moment & components:      7.2880;       -0.2692      7.2831      0.0000
 -----------------------------------------------------------------------------
   9  Screening settings (-IFTHRS, JTDIIS, DIFDEN, times)  -14    9    T  3.55D+02  3.56D+02
@  9    -1413.44725373        6.89798D-03   -7.23D-05    8
      Virial theorem: -V/T =      2.002653
@    MULPOP   C_a    -0.10; C_b    -0.07; C_c    -0.11; C_d    -0.10; C_e    -0.14; C_f    -0.10; C_g    -0.13; C_h    -0.13; C_i    -0.16; C_j    -0.09; 
@             C_k    -0.09; C_l     0.02; C_m    -0.09; C_n     0.04; C_o    -0.01; C_p    -0.41; C_q    -0.11; C_r    -0.13; C_s    -0.17; C_t    -0.09; 
@             C_u    -0.13; C_v    -0.10; C_w    -0.12; C_x    -0.08; C_y    -0.11; C_z     0.12; C_{    -0.09; C_|    -0.04; C_}    -0.68; C_~     0.20; 
@    MULPOP    dipole moment & components:      7.1235;       -0.2579      7.1188      0.0000
 -----------------------------------------------------------------------------
  10  Screening settings (-IFTHRS, JTDIIS, DIFDEN, times)  -14   10    T  3.48D+02  3.51D+02
@ 10    -1413.44727467        4.29262D-03   -2.09D-05    8
      Virial theorem: -V/T =      2.002654
@    MULPOP   C_a    -0.10; C_b    -0.07; C_c    -0.11; C_d    -0.10; C_e    -0.14; C_f    -0.10; C_g    -0.13; C_h    -0.13; C_i    -0.16; C_j    -0.09; 
@             C_k    -0.09; C_l     0.02; C_m    -0.09; C_n     0.04; C_o    -0.01; C_p    -0.41; C_q    -0.11; C_r    -0.13; C_s    -0.17; C_t    -0.09; 
@             C_u    -0.13; C_v    -0.10; C_w    -0.12; C_x    -0.09; C_y    -0.11; C_z     0.12; C_{    -0.09; C_|    -0.04; C_}    -0.68; C_~     0.20; 
@    MULPOP    dipole moment & components:      6.9870;       -0.2333      6.9831      0.0000
 -----------------------------------------------------------------------------
  11  Screening settings (-IFTHRS, JTDIIS, DIFDEN, times)  -14   11    T  3.41D+02  3.44D+02
@ 11    -1413.44728466        2.77184D-03   -9.99D-06    8
      Virial theorem: -V/T =      2.002655
@    MULPOP   C_a    -0.10; C_b    -0.07; C_c    -0.11; C_d    -0.10; C_e    -0.14; C_f    -0.10; C_g    -0.13; C_h    -0.13; C_i    -0.16; C_j    -0.09; 
@             C_k    -0.09; C_l     0.02; C_m    -0.09; C_n     0.04; C_o    -0.01; C_p    -0.41; C_q    -0.11; C_r    -0.13; C_s    -0.17; C_t    -0.09; 
@             C_u    -0.13; C_v    -0.10; C_w    -0.12; C_x    -0.09; C_y    -0.11; C_z     0.12; C_{    -0.09; C_|    -0.04; C_}    -0.68; C_~     0.20; 
@    MULPOP    dipole moment & components:      6.8761;       -0.2119      6.8728      0.0000
 -----------------------------------------------------------------------------
  12  Screening settings (-IFTHRS, JTDIIS, DIFDEN, times)  -14   12    T  3.42D+02  3.45D+02
@ 12    -1413.44728985        1.10152D-03   -5.20D-06    8
      Virial theorem: -V/T =      2.002653
@    MULPOP   C_a    -0.10; C_b    -0.07; C_c    -0.11; C_d    -0.10; C_e    -0.14; C_f    -0.11; C_g    -0.13; C_h    -0.13; C_i    -0.16; C_j    -0.09; 
@             C_k    -0.09; C_l     0.01; C_m    -0.09; C_n     0.04; C_o    -0.01; C_p    -0.42; C_q    -0.11; C_r    -0.13; C_s    -0.17; C_t    -0.09; 
@             C_u    -0.13; C_v    -0.10; C_w    -0.11; C_x    -0.09; C_y    -0.11; C_z     0.12; C_{    -0.09; C_|    -0.04; C_}    -0.68; C_~     0.20; 
@    MULPOP    dipole moment & components:      6.7629;       -0.1891      6.7602      0.0000
 -----------------------------------------------------------------------------
  13  Screening settings (-IFTHRS, JTDIIS, DIFDEN, times)  -14   13    T  3.33D+02  3.36D+02
@ 13    -1413.44729063        4.70696D-04   -7.77D-07    8
      Virial theorem: -V/T =      2.002654
@    MULPOP   C_a    -0.10; C_b    -0.07; C_c    -0.11; C_d    -0.10; C_e    -0.13; C_f    -0.11; C_g    -0.13; C_h    -0.13; C_i    -0.16; C_j    -0.09; 
@             C_k    -0.09; C_l     0.01; C_m    -0.09; C_n     0.04; C_o    -0.01; C_p    -0.42; C_q    -0.11; C_r    -0.13; C_s    -0.17; C_t    -0.09; 
@             C_u    -0.13; C_v    -0.10; C_w    -0.11; C_x    -0.09; C_y    -0.11; C_z     0.12; C_{    -0.09; C_|    -0.04; C_}    -0.68; C_~     0.20; 
@    MULPOP    dipole moment & components:      6.7155;       -0.1794      6.7132      0.0000
 -----------------------------------------------------------------------------
  14  Screening settings (-IFTHRS, JTDIIS, DIFDEN, times)  -14   14    T  3.19D+02  3.22D+02
@ 14    -1413.44729070        2.36900D-04   -7.44D-08    8
      Virial theorem: -V/T =      2.002653
@    MULPOP   C_a    -0.09; C_b    -0.07; C_c    -0.11; C_d    -0.10; C_e    -0.13; C_f    -0.11; C_g    -0.13; C_h    -0.13; C_i    -0.16; C_j    -0.09; 
@             C_k    -0.09; C_l     0.01; C_m    -0.09; C_n     0.04; C_o    -0.01; C_p    -0.42; C_q    -0.11; C_r    -0.13; C_s    -0.17; C_t    -0.10; 
@             C_u    -0.13; C_v    -0.10; C_w    -0.11; C_x    -0.09; C_y    -0.11; C_z     0.12; C_{    -0.09; C_|    -0.04; C_}    -0.68; C_~     0.20; 
@    MULPOP    dipole moment & components:      6.7045;       -0.1771      6.7022      0.0000
 -----------------------------------------------------------------------------
  15  Screening settings (-IFTHRS, JTDIIS, DIFDEN, times)  -14   15    T  3.12D+02  3.14D+02
@ 15    -1413.44729072        1.12040D-04   -1.59D-08    8
      Virial theorem: -V/T =      2.002653
@    MULPOP   C_a    -0.09; C_b    -0.07; C_c    -0.11; C_d    -0.10; C_e    -0.13; C_f    -0.11; C_g    -0.13; C_h    -0.13; C_i    -0.16; C_j    -0.09; 
@             C_k    -0.09; C_l     0.01; C_m    -0.09; C_n     0.04; C_o    -0.01; C_p    -0.42; C_q    -0.11; C_r    -0.13; C_s    -0.17; C_t    -0.10; 
@             C_u    -0.13; C_v    -0.10; C_w    -0.11; C_x    -0.09; C_y    -0.11; C_z     0.12; C_{    -0.09; C_|    -0.04; C_}    -0.68; C_~     0.20; 
@    MULPOP    dipole moment & components:      6.7001;       -0.1762      6.6978      0.0000
 -----------------------------------------------------------------------------
  16  Screening settings (-IFTHRS, JTDIIS, DIFDEN, times)  -14   16    T  3.00D+02  3.02D+02
@ 16    -1413.44729072        5.16700D-05   -2.36D-09    8
      Virial theorem: -V/T =      2.002653
@    MULPOP   C_a    -0.09; C_b    -0.07; C_c    -0.11; C_d    -0.10; C_e    -0.13; C_f    -0.11; C_g    -0.13; C_h    -0.13; C_i    -0.16; C_j    -0.09; 
@             C_k    -0.09; C_l     0.01; C_m    -0.09; C_n     0.04; C_o    -0.01; C_p    -0.42; C_q    -0.11; C_r    -0.13; C_s    -0.17; C_t    -0.10; 
@             C_u    -0.13; C_v    -0.10; C_w    -0.11; C_x    -0.09; C_y    -0.11; C_z     0.12; C_{    -0.09; C_|    -0.04; C_}    -0.68; C_~     0.20; 
@    MULPOP    dipole moment & components:      6.6993;       -0.1761      6.6969      0.0000
 -----------------------------------------------------------------------------
  17  Screening settings (-IFTHRS, JTDIIS, DIFDEN, times)  -14   17    T  2.96D+02  2.97D+02
@ 17    -1413.44729072        3.53140D-05   -8.63D-10    8
      Virial theorem: -V/T =      2.002654
@    MULPOP   C_a    -0.09; C_b    -0.07; C_c    -0.11; C_d    -0.10; C_e    -0.13; C_f    -0.11; C_g    -0.13; C_h    -0.13; C_i    -0.16; C_j    -0.09; 
@             C_k    -0.09; C_l     0.01; C_m    -0.09; C_n     0.04; C_o    -0.01; C_p    -0.42; C_q    -0.11; C_r    -0.13; C_s    -0.17; C_t    -0.10; 
@             C_u    -0.13; C_v    -0.10; C_w    -0.11; C_x    -0.09; C_y    -0.11; C_z     0.12; C_{    -0.09; C_|    -0.04; C_}    -0.68; C_~     0.20; 
@    MULPOP    dipole moment & components:      6.6988;       -0.1760      6.6965      0.0000
 -----------------------------------------------------------------------------
  18  Screening settings (-IFTHRS, JTDIIS, DIFDEN, times)  -14   18    T  2.94D+02  2.96D+02
@ 18    -1413.44729072        1.63528D-05   -3.07D-10    8
      Virial theorem: -V/T =      2.002653
@    MULPOP   C_a    -0.09; C_b    -0.07; C_c    -0.11; C_d    -0.10; C_e    -0.13; C_f    -0.11; C_g    -0.13; C_h    -0.13; C_i    -0.16; C_j    -0.09; 
@             C_k    -0.09; C_l     0.01; C_m    -0.09; C_n     0.04; C_o    -0.01; C_p    -0.42; C_q    -0.11; C_r    -0.13; C_s    -0.17; C_t    -0.10; 
@             C_u    -0.13; C_v    -0.10; C_w    -0.11; C_x    -0.09; C_y    -0.11; C_z     0.12; C_{    -0.09; C_|    -0.04; C_}    -0.68; C_~     0.20; 
@    MULPOP    dipole moment & components:      6.6986;       -0.1760      6.6962      0.0000
 -----------------------------------------------------------------------------
  19  Screening settings (-IFTHRS, JTDIIS, DIFDEN, times)  -14   19    T  2.94D+02  2.96D+02
@ 19    -1413.44729072        7.04061D-06   -8.91D-11    8

@ *** DIIS converged in  19 iterations !
@     Converged SCF energy, gradient:  -1413.447290723684    7.04D-06
    - total time used in SIRFCK :              0.00 seconds


 *** SCF orbital energy analysis ***

 Only the 20 lowest virtual orbital energies printed in each symmetry.

 Number of electrons :  242
 Orbital occupations :  121

 Sym       Hartree-Fock orbital energies

1 A     -20.58875204   -20.58585825   -15.83901108   -15.59024300   -11.30000018
        -11.29100921   -11.28943699   -11.27975648   -11.27181579   -11.26608798
        -11.26167949   -11.26153405   -11.25816401   -11.25747592   -11.25527000
        -11.25511077   -11.25283489   -11.25280603   -11.25068256   -11.25063399
        -11.24958674   -11.24865319   -11.24861241   -11.24681433   -11.24654694
        -11.24520222   -11.24451872   -11.24438983   -11.24202433   -11.23930118
        -11.23602173   -11.23195519   -11.22727318   -11.22488540    -1.57904242
         -1.37698195    -1.23505992    -1.14496661    -1.13108907    -1.12309781
         -1.11631164    -1.10923346    -1.10073625    -1.09033264    -1.07807295
         -1.06407322    -1.04842569    -1.03121001    -1.01250719    -0.99241212
         -0.97108032    -0.94939766    -0.93552648    -0.89476399    -0.87092220
         -0.84694750    -0.82398423    -0.80409558    -0.78976654    -0.78544653
         -0.77725091    -0.77324979    -0.76816193    -0.76424520    -0.75857110
         -0.75659686    -0.74753045    -0.74583540    -0.73615453    -0.71493181
         -0.71274490    -0.69682983    -0.67834743    -0.67648686    -0.67192433
         -0.66136453    -0.65554597    -0.64390170    -0.64023088    -0.62638995
         -0.62075409    -0.61083342    -0.60171301    -0.59516168    -0.58519988
         -0.57423284    -0.57216052    -0.56099274    -0.55503552    -0.55075070
         -0.54184884    -0.53978818    -0.53424076    -0.52784172    -0.52663364
         -0.52281011    -0.52242152    -0.51774490    -0.51345658    -0.50940457
         -0.50531434    -0.50116744    -0.50103020    -0.49482541    -0.49030020
         -0.48207081    -0.48153556    -0.47919144    -0.47275943    -0.46097652
         -0.44649069    -0.43996341    -0.42927397    -0.40950015    -0.38716619
         -0.36236999    -0.33529597    -0.30633403    -0.27630298    -0.24682176
         -0.22012277     0.00089608     0.01666227     0.02229455     0.02426198
          0.02501626     0.02709970     0.02760881     0.02781703     0.03166552
          0.03287415     0.03530838     0.03891193     0.04156671     0.04594004
          0.04880555     0.05384119     0.05581046     0.05734050     0.06241130
          0.06680394

    E(LUMO) :     0.00089608 au (symmetry 1)
  - E(HOMO) :    -0.22012277 au (symmetry 1)
  ------------------------------------------
    gap     :     0.22101885 au

 --- Writing SIRIFC interface file

 CPU and wall time for SCF :    8203.554    8260.158


                       .-----------------------------------.
                       | --- Final results from SIRIUS --- |
                       `-----------------------------------'


@    Spin multiplicity:           1
@    Spatial symmetry:            1 ( irrep  A   in C1  )
@    Total charge of molecule:    0

@    Final HF energy:           -1413.447290723684                 
@    Nuclear repulsion:          2233.399100428078
@    Electronic energy:         -3646.846391151762

@    Final gradient norm:           0.000007040606

 
     Date and time (Linux)  : Fri May  2 16:30:40 2025
     Host name              : xm046                                   

File label for MO orbitals:   2May25   FOCKDIIS

 (Only coefficients > 0.0100 are printed.)

 Molecular orbitals for symmetry species 1  (A  )
 ------------------------------------------------

    Orbital       112      113      114      115      116      117      118
   8 C_a :2pz    0.0053   0.1301  -0.1405  -0.1585  -0.1177   0.1737  -0.1071
  24 C_a :3d1-   0.0006  -0.0044  -0.0094   0.0041  -0.0129  -0.0022  -0.0158
  54 C_b :2pz    0.0122   0.0288  -0.1974  -0.0430  -0.1953   0.0514  -0.1931
  63 C_b :2pz   -0.0009   0.0011  -0.0051  -0.0024  -0.0083   0.0036  -0.0155
  70 C_b :3d1-   0.0002  -0.0088   0.0012   0.0124   0.0016  -0.0152   0.0034
  75 C_b :3d1-  -0.0010   0.0110  -0.0010  -0.0054   0.0021   0.0012   0.0011
 100 C_c :2pz    0.0165  -0.1338  -0.1406   0.1633  -0.1013  -0.1924  -0.0416
 109 C_c :2pz    0.0004  -0.0033  -0.0034   0.0063  -0.0035  -0.0113  -0.0023
 116 C_c :3d1-   0.0002  -0.0078   0.0048   0.0099   0.0086  -0.0102   0.0121
 146 C_d :2pz    0.0140  -0.1929  -0.0293   0.2018   0.0404  -0.1874   0.1044
 155 C_d :2pz    0.0010  -0.0040  -0.0015   0.0068   0.0008  -0.0111   0.0081
 162 C_d :3d1-  -0.0005   0.0001   0.0105  -0.0041   0.0119   0.0108   0.0085
 167 C_d :3d1-   0.0000   0.0044  -0.0104   0.0013  -0.0021   0.0004  -0.0012
 192 C_e :2pz    0.0041  -0.1762   0.1527   0.0834   0.2053   0.0519   0.1701
 201 C_e :2pz   -0.0003  -0.0037   0.0048   0.0019   0.0090   0.0036   0.0122
 208 C_e :3d1-  -0.0005   0.0018   0.0087  -0.0087   0.0057   0.0144  -0.0021
 238 C_f :2pz   -0.0040  -0.0960   0.2017  -0.0503   0.1638   0.1698   0.0418
 254 C_f :3d1-  -0.0005   0.0086  -0.0020  -0.0104  -0.0114   0.0027  -0.0160
 284 C_g :2pz   -0.0142   0.0693   0.1371  -0.2024  -0.0659   0.1351  -0.2061
 290 C_g :2pz   -0.0002   0.0043  -0.0030  -0.0041  -0.0071   0.0006  -0.0102
 293 C_g :2pz    0.0000   0.0022   0.0029  -0.0068  -0.0035   0.0071  -0.0152
 300 C_g :3d1-  -0.0005   0.0082  -0.0052  -0.0058  -0.0131  -0.0065  -0.0091
 330 C_h :2pz   -0.0167   0.1576   0.0248  -0.1825  -0.1746  -0.0076  -0.1666
 339 C_h :2pz   -0.0002   0.0031   0.0014  -0.0064  -0.0072  -0.0002  -0.0122
 346 C_h :3d1-   0.0001   0.0033  -0.0104   0.0086  -0.0026  -0.0139   0.0145
 376 C_i :2pz   -0.0137   0.2081  -0.1546  -0.0022  -0.1566  -0.2078   0.1243
 385 C_i :2pz   -0.0005   0.0043  -0.0043   0.0005  -0.0063  -0.0116   0.0091
 392 C_i :3d1-   0.0001   0.0018  -0.0086   0.0110   0.0049  -0.0068   0.0151
 422 C_j :2pz   -0.0075   0.1663  -0.2037   0.1235  -0.0281  -0.1630   0.1974
 431 C_j :2pz   -0.0001   0.0039  -0.0054   0.0037  -0.0014  -0.0087   0.0137
 438 C_j :3d1-   0.0006  -0.0067   0.0014   0.0072   0.0138   0.0132  -0.0046
 443 C_j :3d1-  -0.0016   0.0121  -0.0034  -0.0018  -0.0014   0.0011  -0.0029
 468 C_k :2pz    0.0045   0.0275  -0.1466   0.2075   0.1880   0.0960   0.0334
 484 C_k :3d1-   0.0005  -0.0066   0.0043   0.0018   0.0094   0.0142  -0.0125
 489 C_k :3d1-  -0.0018   0.0180  -0.0115   0.0047   0.0016   0.0010  -0.0014
 514 C_l :2pz    0.0114  -0.0787  -0.0367   0.1394   0.1973   0.1890  -0.1123
 530 C_l :3d1-   0.0002  -0.0061   0.0101  -0.0109  -0.0074  -0.0002  -0.0085
 535 C_l :3d1-  -0.0016   0.0181  -0.0147   0.0092   0.0042   0.0005   0.0003
 560 C_m :2pz    0.0175  -0.1983   0.1462  -0.0696   0.0198   0.1070  -0.1762
 566 C_m :2pz   -0.0000  -0.0011   0.0033  -0.0041  -0.0021   0.0031  -0.0100
 569 C_m :2pz    0.0003  -0.0048   0.0044  -0.0028   0.0008   0.0070  -0.0154
 576 C_m :3d1-   0.0002  -0.0040   0.0076  -0.0104  -0.0109  -0.0081   0.0021
 581 C_m :3d1-  -0.0009   0.0120  -0.0130   0.0109   0.0077   0.0045  -0.0031
 606 C_n :2pz    0.0163  -0.2070   0.2003  -0.1700  -0.1169  -0.0450  -0.0373
 622 C_n :3d1-  -0.0005   0.0049  -0.0020  -0.0024  -0.0074  -0.0122   0.0160
 627 C_n :3d1-  -0.0006   0.0088  -0.0109   0.0113   0.0104   0.0077  -0.0036
 652 C_o :2pz    0.0087  -0.1271   0.1580  -0.1852  -0.2063  -0.2189   0.2206
 658 C_o :2pz   -0.0001   0.0007   0.0014  -0.0046  -0.0088  -0.0130   0.0165
 661 C_o :2pz    0.0002  -0.0026   0.0043  -0.0067  -0.0098  -0.0139   0.0186
 698 C_p :2pz   -0.0002  -0.0088   0.0318  -0.0581  -0.0864  -0.1152   0.1416
 714 C_p :3d1-  -0.0008   0.0115  -0.0137   0.0156   0.0172   0.0182  -0.0186
 719 C_p :3d1-  -0.0002   0.0029  -0.0048   0.0064   0.0080   0.0092  -0.0101
 744 C_q :2pz    0.0146   0.0610  -0.0728  -0.1782   0.1967  -0.1074   0.0519
 760 C_q :3d1-   0.0006  -0.0073  -0.0108  -0.0091   0.0019   0.0078   0.0149
 790 C_r :2pz    0.0155  -0.0511  -0.1653  -0.1916   0.1097   0.0367   0.1632
 799 C_r :2pz    0.0033  -0.0006  -0.0041  -0.0067   0.0052   0.0023   0.0140
 806 C_r :3d1-  -0.0003  -0.0082  -0.0028   0.0067  -0.0142   0.0128   0.0010
 836 C_s :2pz    0.0085  -0.1841  -0.1746  -0.0322  -0.1411   0.2035   0.0891
 845 C_s :2pz   -0.0043  -0.0048  -0.0048  -0.0003  -0.0073   0.0121   0.0053
 852 C_s :3d1-  -0.0004  -0.0059   0.0018   0.0105  -0.0124   0.0042  -0.0089
 882 C_t :2pz    0.0003  -0.1912  -0.0816   0.0989  -0.1974   0.1253  -0.0565
 898 C_t :3d1-  -0.0007   0.0046   0.0111   0.0084   0.0041  -0.0153  -0.0118
 928 C_u :2pz   -0.0117  -0.0877   0.1157   0.2003  -0.0632  -0.1510  -0.1894
 937 C_u :2pz    0.0028  -0.0014   0.0040   0.0073  -0.0024  -0.0093  -0.0138
 944 C_u :3d1-  -0.0006   0.0062   0.0100   0.0024   0.0105  -0.0136  -0.0015
 949 C_u :3d1-  -0.0005  -0.0102  -0.0088  -0.0008  -0.0014  -0.0006  -0.0028
 974 C_v :2pz   -0.0155   0.0222   0.1877   0.1355   0.0789  -0.1997  -0.0801
 983 C_v :2pz   -0.0014  -0.0002   0.0050   0.0054   0.0027  -0.0119  -0.0074
 990 C_v :3d1-   0.0000   0.0084   0.0001  -0.0116   0.0102   0.0064   0.0168
 995 C_v :3d1-  -0.0002  -0.0105  -0.0040   0.0033  -0.0014   0.0003   0.0009
1020 C_w :2pz   -0.0136   0.1693   0.1544  -0.0822   0.2016  -0.0169   0.1984
1026 C_w :2pz   -0.0003   0.0034  -0.0020  -0.0068   0.0046   0.0049   0.0107
1029 C_w :2pz   -0.0019   0.0043   0.0039  -0.0039   0.0094  -0.0004   0.0153
1036 C_w :3d1-   0.0001   0.0068  -0.0039  -0.0120   0.0028   0.0129   0.0113
1066 C_x :2pz   -0.0073   0.1991   0.0487  -0.1778   0.1278   0.1233   0.1813
1075 C_x :2pz    0.0012   0.0046   0.0020  -0.0056   0.0063   0.0069   0.0152
1082 C_x :3d1-   0.0006  -0.0028  -0.0109  -0.0019  -0.0133   0.0073  -0.0136
1112 C_y :2pz   -0.0161  -0.0577   0.0054   0.0745  -0.1408   0.1934   0.2196
1118 C_y :2pz    0.0135   0.0024   0.0039   0.0059  -0.0082   0.0106   0.0125
1121 C_y :2pz    0.0009  -0.0009   0.0004   0.0027  -0.0059   0.0105   0.0161
1128 C_y :3d1-   0.0002   0.0067   0.0096   0.0116  -0.0122   0.0112   0.0087
1133 C_y :3d1-  -0.0010  -0.0145  -0.0129  -0.0103   0.0075  -0.0043  -0.0016
1158 C_z :2pz   -0.0130   0.0527   0.1164   0.1654  -0.1902   0.1854   0.1521
1164 C_z :2pz   -0.0061  -0.0024  -0.0019   0.0006  -0.0045   0.0086   0.0108
1167 C_z :2pz    0.0123   0.0010   0.0029   0.0059  -0.0096   0.0132   0.0159
1174 C_z :3d1-   0.0009   0.0081   0.0061   0.0017   0.0048  -0.0120  -0.0179
1179 C_z :3d1-  -0.0039  -0.0131  -0.0097  -0.0061   0.0044  -0.0040  -0.0053
1204 C_{ :2pz   -0.0038   0.1862   0.1932   0.1474  -0.0544  -0.0635  -0.1700
1210 C_{ :2pz    0.0063   0.0037   0.0021  -0.0004   0.0041  -0.0086  -0.0133
1213 C_{ :2pz   -0.0036   0.0047   0.0059   0.0055  -0.0025  -0.0041  -0.0146
1220 C_{ :3d1-   0.0008   0.0054   0.0013  -0.0045   0.0105  -0.0144  -0.0147
1250 C_| :2pz    0.0042   0.1821   0.1259   0.0271   0.0835  -0.1679  -0.1966
1259 C_| :2pz   -0.0069   0.0045   0.0043   0.0017   0.0036  -0.0110  -0.0181
1266 C_| :3d1-   0.0010  -0.0059  -0.0110  -0.0132   0.0100  -0.0013   0.0103
1296 C_} :2pz   -0.0195  -0.1878  -0.2027  -0.2135   0.2178  -0.2130  -0.1953
1302 C_} :2pz    0.0089  -0.0032  -0.0051  -0.0068   0.0088  -0.0105  -0.0118
1305 C_} :2pz    0.0153  -0.0044  -0.0058  -0.0072   0.0088  -0.0106  -0.0123
1317 C_} :3d1-   0.0220  -0.0080  -0.0095  -0.0102   0.0103  -0.0098  -0.0085
1319 C_} :3d1+  -0.0225   0.0005   0.0023   0.0030  -0.0032   0.0028   0.0021
1342 C_~ :2pz   -0.0103  -0.1765  -0.1678  -0.1507   0.1258  -0.0949  -0.0612
1348 C_~ :2pz   -0.0292   0.0022   0.0015  -0.0001   0.0016  -0.0025  -0.0024
1351 C_~ :2pz   -0.0226  -0.0045  -0.0046  -0.0053   0.0060  -0.0065  -0.0068
1358 C_~ :3d1-   0.0004   0.0058   0.0089   0.0122  -0.0152   0.0175   0.0181
1388 N_a :2pz   -0.0124   0.1598  -0.1688   0.1752   0.1794   0.1813  -0.1797
1394 N_a :2pz   -0.0004   0.0060  -0.0073   0.0087   0.0104   0.0122  -0.0142
1397 N_a :2pz   -0.0006   0.0084  -0.0103   0.0126   0.0153   0.0186  -0.0226
1434 N_b :2pz   -0.0060   0.0160   0.0123   0.0073  -0.0012  -0.0052  -0.0110
1445 N_b :3d1-   0.0101  -0.0019  -0.0024  -0.0026   0.0027  -0.0027  -0.0025
1447 N_b :3d1+  -0.0175  -0.0019  -0.0016  -0.0016   0.0016  -0.0015  -0.0014
1450 N_b :3d1-   0.0287  -0.0064  -0.0079  -0.0087   0.0092  -0.0092  -0.0087
1452 N_b :3d1+  -0.0500  -0.0060  -0.0052  -0.0053   0.0054  -0.0054  -0.0051
1455 N_b :3d1-  -0.0108  -0.0039  -0.0040  -0.0042   0.0042  -0.0041  -0.0038
1457 N_b :3d1+   0.0126  -0.0014  -0.0026  -0.0034   0.0040  -0.0043  -0.0042
1480 O_a :2pz   -0.6356   0.0351   0.0558   0.0630  -0.0665   0.0669   0.0634
1486 O_a :2pz   -0.0614   0.0008   0.0030   0.0041  -0.0050   0.0058   0.0063
1489 O_a :2pz   -0.0437   0.0008   0.0027   0.0039  -0.0051   0.0062   0.0071
1496 O_a :3d1-  -0.0151   0.0006   0.0009   0.0009  -0.0008   0.0006   0.0004
1501 O_a :3d1-  -0.0190   0.0001   0.0006   0.0008  -0.0009   0.0009   0.0009
1526 O_b :2pz    0.6464   0.0832   0.0704   0.0691  -0.0684   0.0662   0.0610
1532 O_b :2pz    0.0619   0.0066   0.0051   0.0049  -0.0048   0.0049   0.0049
1535 O_b :2pz    0.0464   0.0044   0.0039   0.0044  -0.0052   0.0060   0.0066
1544 O_b :3d1+   0.0169   0.0021   0.0016   0.0014  -0.0012   0.0010   0.0007
1549 O_b :3d1+   0.0192   0.0020   0.0013   0.0009  -0.0006   0.0004   0.0002
2221 H_} :2pz    0.0161  -0.0017  -0.0033  -0.0042   0.0048  -0.0049  -0.0046

    Orbital       119      120      121      122      123      124      125
   4 C_a :1s    -0.0000  -0.0000   0.0000  -0.0000   0.0592  -0.3691   0.2212
   5 C_a :1s    -0.0000   0.0000   0.0000   0.0000   1.1469  -9.2510   0.7926
   6 C_a :2px   -0.0000   0.0000   0.0000   0.0000  -0.0023   0.0134  -0.0111
   8 C_a :2pz   -0.1787  -0.1219  -0.1994  -0.1042  -0.0000  -0.0000  -0.0000
  12 C_a :2px   -0.0000   0.0000   0.0000   0.0000   0.1038  -0.3219  -0.2540
  13 C_a :2py    0.0000   0.0000  -0.0000  -0.0000   0.1552  -0.3202   0.3173
  14 C_a :2pz   -0.0083  -0.0122  -0.0166  -0.0102   0.0000   0.0000   0.0000
  15 C_a :2px   -0.0000   0.0000   0.0000   0.0000  -0.4418   1.3627  -0.3576
  16 C_a :2py   -0.0000   0.0000   0.0000   0.0000   4.1749   0.5716   9.2013
  17 C_a :2pz   -0.0177  -0.0254  -0.0393  -0.0581  -0.0000  -0.0000  -0.0000
  24 C_a :3d1-  -0.0013  -0.0174  -0.0112   0.0185  -0.0000   0.0000   0.0000
  27 C_a :3d2+  -0.0000   0.0000   0.0000  -0.0000   0.0129  -0.0084  -0.0050
  28 C_a :3d2-  -0.0000  -0.0000   0.0000   0.0000  -0.1147   0.2198  -0.0378
  29 C_a :3d1-  -0.0024  -0.0049  -0.0046   0.0140   0.0000  -0.0000  -0.0000
  30 C_a :3d0   -0.0000  -0.0000   0.0000  -0.0000  -0.0317   0.1390   0.0450
  32 C_a :3d2+  -0.0000   0.0000   0.0000  -0.0000   0.1874  -0.0166   0.1817
  40 C_a :4f3-  -0.0000  -0.0000   0.0000   0.0000   0.0021   0.0031  -0.0113
  46 C_a :4f3+   0.0000   0.0000  -0.0000  -0.0000   0.0053  -0.0252  -0.0026
  50 C_b :1s    -0.0000   0.0000   0.0000  -0.0000   0.2178   0.5939  -0.0184
  51 C_b :1s     0.0000  -0.0000  -0.0000  -0.0000   0.5395   8.2338  -1.3212
  52 C_b :2px    0.0000   0.0000  -0.0000   0.0000   0.0019   0.0199   0.0030
  54 C_b :2pz   -0.0639  -0.1908  -0.1380   0.1723   0.0000  -0.0000  -0.0000
  58 C_b :2px   -0.0000   0.0000   0.0000  -0.0000   0.0166  -0.1221   0.1832
  59 C_b :2py   -0.0000   0.0000  -0.0000  -0.0000   0.1620  -0.2733   0.2739
  60 C_b :2pz   -0.0074  -0.0115  -0.0139   0.0202  -0.0000  -0.0000   0.0000
  61 C_b :2px    0.0000  -0.0000  -0.0000  -0.0000   0.2084   1.3526  -0.0203
  62 C_b :2py    0.0000  -0.0000   0.0000  -0.0000   4.5530   0.2339  10.0906
  63 C_b :2pz   -0.0096  -0.0239  -0.0327   0.1094   0.0000  -0.0000  -0.0000
  70 C_b :3d1-   0.0170   0.0080   0.0191   0.0102   0.0000   0.0000   0.0000
  73 C_b :3d2+  -0.0000  -0.0000   0.0000   0.0000   0.0114   0.0128  -0.0099
  74 C_b :3d2-  -0.0000  -0.0000  -0.0000   0.0000  -0.0425  -0.0603   0.1882
  76 C_b :3d0   -0.0000  -0.0000   0.0000   0.0000  -0.0128  -0.0932   0.0683
  78 C_b :3d2+  -0.0000  -0.0000   0.0000   0.0000   0.0977   0.1630   0.1723
  92 C_b :4f3+  -0.0000   0.0000   0.0000   0.0000  -0.0039  -0.0216   0.0044
  96 C_c :1s    -0.0000  -0.0000   0.0000   0.0000   0.1008  -0.2809   0.2477
  97 C_c :1s    -0.0000   0.0000  -0.0000   0.0000  -0.4384  -6.9640  -0.0041
  98 C_c :2px   -0.0000   0.0000   0.0000   0.0000  -0.0018   0.0101  -0.0053
 100 C_c :2pz    0.2093   0.0483   0.2182   0.0837   0.0000  -0.0000  -0.0000
 104 C_c :2px    0.0000  -0.0000  -0.0000  -0.0000  -0.0161  -0.2460  -0.1950
 105 C_c :2py   -0.0000   0.0000   0.0000   0.0000   0.1949  -0.2021   0.3396
 106 C_c :2pz    0.0121   0.0071   0.0187   0.0075   0.0000   0.0000   0.0000
 107 C_c :2px   -0.0000  -0.0000   0.0000  -0.0000   0.1604   1.0267   0.0354
 108 C_c :2py    0.0000  -0.0000  -0.0000   0.0000   4.2536   0.7142   9.2265
 109 C_c :2pz    0.0226   0.0138   0.0438   0.0428   0.0000  -0.0000  -0.0000
 116 C_c :3d1-   0.0097   0.0148   0.0135  -0.0163   0.0000  -0.0000  -0.0000
 119 C_c :3d2+  -0.0000   0.0000  -0.0000   0.0000   0.0074  -0.0082  -0.0150
 120 C_c :3d2-   0.0000  -0.0000   0.0000   0.0000  -0.1160   0.1783   0.0029
 121 C_c :3d1-   0.0032   0.0035   0.0061  -0.0150   0.0000  -0.0000   0.0000
 122 C_c :3d0   -0.0000   0.0000   0.0000   0.0000   0.0173   0.1064   0.0584
 124 C_c :3d2+  -0.0000  -0.0000  -0.0000   0.0000  -0.0331  -0.0538   0.0886
 132 C_c :4f3-  -0.0000   0.0000  -0.0000   0.0000  -0.0032   0.0009  -0.0131
 138 C_c :4f3+   0.0000  -0.0000  -0.0000   0.0000  -0.0030  -0.0195  -0.0043
 142 C_d :1s    -0.0000   0.0000  -0.0000  -0.0000  -0.0892   0.4444  -0.2159
 143 C_d :1s     0.0000  -0.0000   0.0000  -0.0000   0.5461   6.1755  -2.4846
 144 C_d :2px    0.0000   0.0000   0.0000  -0.0000   0.0011   0.0143  -0.0042
 146 C_d :2pz    0.1544   0.1497   0.1628  -0.1501  -0.0000   0.0000   0.0000
 150 C_d :2px    0.0000   0.0000  -0.0000  -0.0000  -0.0714  -0.0916   0.1384
 151 C_d :2py   -0.0000   0.0000  -0.0000  -0.0000   0.2012  -0.1859   0.3188
 152 C_d :2pz    0.0109   0.0072   0.0156  -0.0176   0.0000  -0.0000  -0.0000
 153 C_d :2px    0.0000   0.0000  -0.0000  -0.0000  -0.1381   1.0324  -0.2305
 154 C_d :2py    0.0000  -0.0000  -0.0000   0.0000   4.7167   0.4641   8.7713
 155 C_d :2pz    0.0177   0.0156   0.0368  -0.0953  -0.0000   0.0000   0.0000
 161 C_d :3d2-   0.0000  -0.0000  -0.0000  -0.0000   0.0007  -0.0008   0.0112
 162 C_d :3d1-  -0.0171  -0.0010  -0.0205  -0.0082   0.0000  -0.0000  -0.0000
 165 C_d :3d2+   0.0000  -0.0000  -0.0000   0.0000   0.0009   0.0082  -0.0185
 166 C_d :3d2-   0.0000  -0.0000   0.0000   0.0000   0.0939  -0.0057   0.2843
 168 C_d :3d0    0.0000  -0.0000  -0.0000   0.0000  -0.0475  -0.0692   0.0825
 170 C_d :3d2+  -0.0000  -0.0000   0.0000   0.0000  -0.0643   0.0912   0.0083
 184 C_d :4f3+   0.0000  -0.0000  -0.0000  -0.0000  -0.0045  -0.0167   0.0090
 188 C_e :1s    -0.0000  -0.0000   0.0000   0.0000  -0.1081  -0.1633   0.1277
 189 C_e :1s     0.0000   0.0000  -0.0000  -0.0000   1.5859  -5.2983   1.3787
 192 C_e :2pz   -0.1755   0.0335  -0.2310  -0.0645  -0.0000   0.0000   0.0000
 193 C_e :2px   -0.0000  -0.0000  -0.0000   0.0000   0.0045  -0.0020  -0.0127
 196 C_e :2px    0.0000   0.0000   0.0000  -0.0000   0.1061  -0.1934  -0.0923
 197 C_e :2py   -0.0000   0.0000  -0.0000  -0.0000   0.1076  -0.1089   0.4166
 198 C_e :2pz   -0.0122  -0.0011  -0.0201  -0.0052   0.0000  -0.0000  -0.0000
 199 C_e :2px   -0.0000  -0.0000  -0.0000   0.0000  -0.3668   0.7703  -0.2237
 200 C_e :2py    0.0000  -0.0000  -0.0000  -0.0000   4.4305   0.7878   9.1196
 201 C_e :2pz   -0.0200  -0.0003  -0.0475  -0.0297  -0.0000   0.0000   0.0000
[...]

 NOTE:    1 warnings have been issued.
 Check output, result, and error files for "WARNING".


                     .---------------------------------------.
                     | End of Wave Function Section (SIRIUS) |
                     `---------------------------------------'



        *****************************************************************
        ******** Output from **PROPE input processing for ABACUS ********
        *****************************************************************



 The following molecular properties will be calculated in this run:
 ------------------------------------------------------------------

 Default print level:        0

      Electronic excitation energies 
      Direct calculation - no two-electron integrals written or read.
      Two-electron integrals will be calculated in parallel
      Natural orbital connection is used
      for perturbation dependent basis sets.


 Changes of defaults for .EXCITA:
 --------------------------------

 Number of excitation energies:    4
 Print level          :    0
 Integral print level :    0
 Convergence threshold: 1.00E-04
 Maximum iterations   :   60

 Center of mass dipole origin  :   -0.011475   -0.312820    0.000000

 Center of mass gauge origin   :   -0.011475   -0.312820    0.000000


                 .------------------------------------------------.
                 | Starting in Static Property Section (ABACUS) - |
                 `------------------------------------------------'


 
     Date and time (Linux)  : Fri May  2 16:30:46 2025
     Host name              : xm046                                   


                  **********************************************
                  *** ABACUS - Excitation energies (.EXCITA) ***
                  **********************************************

  Time used in EXCITA     is       7 hours 27 minutes  1 second 


   ***************************************************************************
   ************************ FINAL RESULTS from ABACUS ************************
   ***************************************************************************


 
     Date and time (Linux)  : Sat May  3 00:56:29 2025
     Host name              : xm046                                   


                             Molecular geometry (au)
                             -----------------------

 C_a        0.9613339198            1.0029570198            0.0000000000
 C_b       -0.2833965599            3.2891268992            0.0000000000
 C_c        0.9675208798            5.6984256686            0.0000000000
 C_d       -0.2824101199            7.9818157580            0.0000000000
 C_e        0.9613339198           10.3949657874            0.0000000000
 C_f       -0.2956570999           12.6742929669            0.0000000000
 C_g        0.9381677598           15.0930063463            0.0000000000
 C_h       -0.3288312399           17.3662523857            0.0000000000
 C_i        0.8906713898           19.7932389851            0.0000000000
 C_j       -0.3909446499           22.0571346646            0.0000000000
 C_k        0.8068355798           24.4968561340            0.0000000000
 C_l       -0.4975422099           26.7454261234            0.0000000000
 C_m        0.6636812598           29.2061783528            0.0000000000
 C_n       -0.6825010498           31.4254160223            0.0000000000
 C_o        0.4060870299           33.9223489517            0.0000000000
 C_p       -1.0499847497           36.0621614311            0.0000000000
 C_q        0.8321408998          -17.7727457056            0.0000000000
 C_r       -0.3909484299          -15.4789715662            0.0000000000
 C_s        0.8841915198          -13.0794407968            0.0000000000
 C_t       -0.3470122999          -10.7879721273            0.0000000000
 C_u        0.9201756798           -8.3858089679            0.0000000000
 C_v       -0.3162059799           -6.0960127085            0.0000000000
 C_w        0.9453373798           -3.6917236091            0.0000000000
 C_x       -0.2951733299           -1.4035543997            0.0000000000
 C_y        0.6198112698          -27.1565247033            0.0000000000
 C_z       -0.5622124199          -24.8527217939            0.0000000000
 C_{        0.7518275398          -22.4657652645            0.0000000000
 C_|       -0.4564746799          -20.1680019150            0.0000000000
 C_}        0.3808988699          -31.8055684522            0.0000000000
 C_~       -0.7588384198          -29.5172083827            0.0000000000
 N_a       -0.1832467400           38.4996265605            0.0000000000
 N_b       -1.0974792297          -34.1326603516            0.0000000000
 O_a        0.1441483100          -36.1129988411            0.0000000000
 O_b       -3.4228117992          -33.9888219517            0.0000000000
 H_a        3.0400005293            1.0049298998            0.0000000000
 H_b       -2.3623957594            3.2848315592            0.0000000000
 H_c        3.0461969393            5.7051379686            0.0000000000
 H_d       -2.3614792494            7.9720439880            0.0000000000
 H_e        3.0399835193           10.4079236374            0.0000000000
 H_f       -2.3748036994           12.6569868569            0.0000000000
 H_g        3.0167285493           15.1146909563            0.0000000000
 H_h       -2.4080477694           17.3381124757            0.0000000000
 H_i        2.9690186393           19.8275526351            0.0000000000
 H_j       -2.4701857394           22.0126977546            0.0000000000
 H_k        2.8846536993           24.5503901840            0.0000000000
 H_l       -2.5766170094           26.6739264534            0.0000000000
 H_m        2.7398931193           29.2930963128            0.0000000000
 H_n       -2.7597390293           31.3005164623            0.0000000000
 H_o        2.4746984094           34.0980008816            0.0000000000
 H_p       -3.1161130292           35.8874789212            0.0000000000
 H_q        2.9101555593          -17.7946476256            0.0000000000
 H_r       -2.4697227594          -15.4629315762            0.0000000000
 H_s        2.9625500993          -13.0916918968            0.0000000000
 H_t       -2.4258546594          -10.7790658474            0.0000000000
 H_u        2.9987043393           -8.3922302579            0.0000000000
 H_v       -2.3950955794           -6.0919101085            0.0000000000
 H_w        3.0239567493           -3.6938230891            0.0000000000
 H_x       -2.3741139494           -1.4035090397            0.0000000000
 H_y        2.6943885193          -27.2292451533            0.0000000000
 H_z       -2.6400305494          -24.8038818239            0.0000000000
 H_{        2.8290900893          -22.5054665145            0.0000000000
 H_|       -2.5350770494          -20.1394122451            0.0000000000
 H_}        2.4144501594          -32.1526695621            0.0000000000
 H_~       -2.8307870593          -29.4723897428            0.0000000000
 H_        1.6900519896           38.8724770805            0.0000000000
 H_      -1.3914015697           39.9724129602            0.0000000000





                        Molecular wave function and energy
                        ----------------------------------

     Spatial symmetry   1 ( A   )
     Spin multiplicity  1
     2 * M_S            0
     State number       1
     Total charge       0

     Total energy      -1413.4472907237 au (Hartrees)
                        -38461.85728841 eV
                          -3711005.2897 kJ/mol
                           -886951.5511 kcal/mol


                   Scalar Breit-Pauli relativistic corrections
                   -------------------------------------------

     Darwin correction:                          2.4552593885 au
     Mass-velocity correction:                  -3.0547713664 au

     Total relativistic correction:             -0.5995119779 au ( 0.0424%)
     Non-relativistic + relativistic energy: -1414.0468027016 au



      (Note that these corrections are NOT included in the results below.)


                                  Dipole moment
                                  -------------

                 au               Debye          C m (/(10**-30)
              6.885413          17.500974          58.376965


                             Dipole moment components
                             ------------------------

                 au               Debye          C m (/(10**-30)

      x      0.23580436         0.59935485         1.99923258
      y      6.88137438        17.49070792        58.34272163
      z      0.00000000         0.00000000         0.00000000


   Units:   1 a.u. =   2.54175 Debye 
            1 a.u. =   8.47835 (10**-30) C m (SI)




@               Singlet electronic excitation energies
                --------------------------------------

               ========================================
                 Sym.   Mode   Frequency    Frequency
                ex. st.  No.      (au)         (eV)
               ----------------------------------------
                   1      1     0.090780     2.470244
                   1      2     0.119619     3.254993
                   1      3     0.146706     3.992082
                   1      4     0.155281     4.225401
               ========================================

  Max    interatomic separation is   40.2709 Angstrom (   76.1009 Bohr)
  between atoms   66 and   33, "H_  " and "O_a   ".

  Min HX interatomic separation is    1.0080 Angstrom (    1.9049 Bohr)

  Min YX interatomic separation is    1.2329 Angstrom (    2.3298 Bohr)


  Bond distances (Angstrom):
  --------------------------

                  atom 1     atom 2       distance
                  ------     ------       --------
  bond distance:  C_b        C_a          1.377481
  bond distance:  C_c        C_b          1.436549
  bond distance:  C_d        C_c          1.377508
  bond distance:  C_e        C_d          1.436615
  bond distance:  C_f        C_e          1.377423
  bond distance:  C_g        C_f          1.436840
  bond distance:  C_h        C_g          1.377176
  bond distance:  C_i        C_h          1.437323
  bond distance:  C_j        C_i          1.376651
  bond distance:  C_k        C_j          1.438245
  bond distance:  C_l        C_k          1.375603
  bond distance:  C_m        C_l          1.439882
  bond distance:  C_n        C_m          1.373541
  bond distance:  C_o        C_n          1.441432
  bond distance:  C_p        C_o          1.369633
  bond distance:  C_r        C_q          1.375591
  bond distance:  C_s        C_r          1.437934
  bond distance:  C_t        C_s          1.376542
  bond distance:  C_u        C_t          1.437196
  bond distance:  C_v        C_u          1.377062
  bond distance:  C_w        C_v          1.436801
  bond distance:  C_x        C_a          1.436607
  bond distance:  C_x        C_w          1.377344
  bond distance:  C_z        C_y          1.370220
  bond distance:  C_{        C_z          1.441876
  bond distance:  C_|        C_q          1.439302
  bond distance:  C_|        C_{          1.373794
  bond distance:  C_~        C_y          1.446649
  bond distance:  C_~        C_}          1.352831
  bond distance:  N_a        C_p          1.368971
  bond distance:  N_b        C_}          1.458933
  bond distance:  O_a        N_b          1.236892
  bond distance:  O_b        N_b          1.232865
  bond distance:  H_a        C_a          1.099983
  bond distance:  H_b        C_b          1.100161
  bond distance:  H_c        C_c          1.099994
  bond distance:  H_d        C_d          1.100208
  bond distance:  H_e        C_e          1.099995
  bond distance:  H_f        C_f          1.100275
  bond distance:  H_g        C_g          1.099987
  bond distance:  H_h        C_h          1.100375
  bond distance:  H_i        C_i          1.099964
  bond distance:  H_j        C_j          1.100538
  bond distance:  H_k        C_k          1.099899
  bond distance:  H_l        C_l          1.100849
  bond distance:  H_m        C_m          1.099646
  bond distance:  H_n        C_n          1.101212
  bond distance:  H_o        C_o          1.098601
  bond distance:  H_p        C_p          1.097249
  bond distance:  H_q        C_q          1.099699
  bond distance:  H_r        C_r          1.100073
  bond distance:  H_s        C_s          1.099839
  bond distance:  H_t        C_t          1.100086
  bond distance:  H_u        C_u          1.099915
  bond distance:  H_v        C_v          1.100103
  bond distance:  H_w        C_w          1.099959
  bond distance:  H_x        C_x          1.100128
  bond distance:  H_y        C_y          1.098493
  bond distance:  H_z        C_z          1.099838
  bond distance:  H_{        C_{          1.099441
  bond distance:  H_|        C_|          1.100053
  bond distance:  H_}        C_}          1.091672
  bond distance:  H_~        C_~          1.096684
  bond distance:  H_        N_a          1.010751
  bond distance:  H_       N_a          1.008043


  Bond angles (degrees):
  ----------------------

                  atom 1     atom 2     atom 3         angle
                  ------     ------     ------         -----
  bond angle:     C_b        C_a        C_x          123.863
  bond angle:     C_b        C_a        H_a          118.512
  bond angle:     C_x        C_a        H_a          117.625
  bond angle:     C_a        C_b        C_c          123.995
  bond angle:     C_a        C_b        H_b          118.448
  bond angle:     C_c        C_b        H_b          117.557
  bond angle:     C_b        C_c        C_d          123.865
  bond angle:     C_b        C_c        H_c          117.624
  bond angle:     C_d        C_c        H_c          118.511
  bond angle:     C_c        C_d        C_e          124.037
  bond angle:     C_c        C_d        H_d          118.427
  bond angle:     C_e        C_d        H_d          117.536
  bond angle:     C_d        C_e        C_f          123.858
  bond angle:     C_d        C_e        H_e          117.624
  bond angle:     C_f        C_e        H_e          118.518
  bond angle:     C_e        C_f        C_g          124.098
  bond angle:     C_e        C_f        H_f          118.399
  bond angle:     C_g        C_f        H_f          117.504
  bond angle:     C_f        C_g        C_h          123.840
  bond angle:     C_f        C_g        H_g          117.625
  bond angle:     C_h        C_g        H_g          118.535
  bond angle:     C_g        C_h        C_i          124.188
  bond angle:     C_g        C_h        H_h          118.358
  bond angle:     C_i        C_h        H_h          117.454
  bond angle:     C_h        C_i        C_j          123.807
  bond angle:     C_h        C_i        H_i          117.624
  bond angle:     C_j        C_i        H_i          118.569
  bond angle:     C_i        C_j        C_k          124.337
  bond angle:     C_i        C_j        H_j          118.290
  bond angle:     C_k        C_j        H_j          117.373
  bond angle:     C_j        C_k        C_l          123.734
  bond angle:     C_j        C_k        H_k          117.625
  bond angle:     C_l        C_k        H_k          118.642
  bond angle:     C_k        C_l        C_m          124.620
  bond angle:     C_k        C_l        H_l          118.148
  bond angle:     C_m        C_l        H_l          117.232
  bond angle:     C_l        C_m        C_n          123.497
  bond angle:     C_l        C_m        H_m          117.660
  bond angle:     C_n        C_m        H_m          118.844
  bond angle:     C_m        C_n        C_o          125.203
  bond angle:     C_m        C_n        H_n          117.800
  bond angle:     C_o        C_n        H_n          116.997
  bond angle:     C_n        C_o        C_p          122.210
  bond angle:     C_n        C_o        H_o          118.409
  bond angle:     C_p        C_o        H_o          119.380
  bond angle:     C_o        C_p        N_a          126.191
  bond angle:     C_o        C_p        H_p          119.401
  bond angle:     N_a        C_p        H_p          114.407
  bond angle:     C_r        C_q        C_|          123.653
  bond angle:     C_r        C_q        H_q          118.671
  bond angle:     C_|        C_q        H_q          117.676
  bond angle:     C_q        C_r        C_s          123.946
  bond angle:     C_q        C_r        H_r          118.510
  bond angle:     C_s        C_r        H_r          117.545
  bond angle:     C_r        C_s        C_t          123.764
  bond angle:     C_r        C_s        H_s          117.649
  bond angle:     C_t        C_s        H_s          118.587
  bond angle:     C_s        C_t        C_u          123.938
  bond angle:     C_s        C_t        H_t          118.495
  bond angle:     C_u        C_t        H_t          117.567
  bond angle:     C_t        C_u        C_v          123.821
  bond angle:     C_t        C_u        H_u          117.636
  bond angle:     C_v        C_u        H_u          118.544
  bond angle:     C_u        C_v        C_w          123.947
  bond angle:     C_u        C_v        H_v          118.480
  bond angle:     C_w        C_v        H_v          117.573
  bond angle:     C_v        C_w        C_x          123.850
  bond angle:     C_v        C_w        H_w          117.628
  bond angle:     C_x        C_w        H_w          118.522
  bond angle:     C_a        C_x        C_w          123.966
  bond angle:     C_a        C_x        H_x          117.569
  bond angle:     C_w        C_x        H_x          118.465
  bond angle:     C_z        C_y        C_~          122.554
  bond angle:     C_z        C_y        H_y          119.169
  bond angle:     C_~        C_y        H_y          118.278
  bond angle:     C_y        C_z        C_{          124.006
  bond angle:     C_y        C_z        H_z          118.508
  bond angle:     C_{        C_z        H_z          117.487
  bond angle:     C_z        C_{        C_|          123.429
  bond angle:     C_z        C_{        H_{          117.738
  bond angle:     C_|        C_{        H_{          118.833
  bond angle:     C_q        C_|        C_{          123.982
  bond angle:     C_q        C_|        H_|          117.492
  bond angle:     C_{        C_|        H_|          118.526
  bond angle:     C_~        C_}        N_b          121.097
  bond angle:     C_~        C_}        H_}          126.162
  bond angle:     N_b        C_}        H_}          112.741
  bond angle:     C_y        C_~        C_}          123.239
  bond angle:     C_y        C_~        H_~          119.046
  bond angle:     C_}        C_~        H_~          117.715
  bond angle:     C_p        N_a        H_          120.832
  bond angle:     C_p        N_a        H_         121.062
  bond angle:     H_        N_a        H_         118.106
  bond angle:     C_}        N_b        O_a          115.486
  bond angle:     C_}        N_b        O_b          118.888
  bond angle:     O_a        N_b        O_b          125.626




 CPU time statistics for ABACUS
 ------------------------------

 MAGINT     00:55:20      11 %
 EXCITA     07:27:01      89 %

 TOTAL      08:22:21     100 %


  Total CPU  time used in ABACUS:   8 hours 22 minutes 21 seconds
  Total wall time used in ABACUS:   8 hours 25 minutes 43 seconds


                   .-------------------------------------------.
                   | End of Static Property Section (ABACUS) - |
                   `-------------------------------------------'

  Total CPU  time used in DALTON:  10 hours 52 minutes  7 seconds
  Total wall time used in DALTON:  10 hours 56 minutes 31 seconds

 
     Date and time (Linux)  : Sat May  3 00:56:29 2025
     Host name              : xm046                                   
