

     ************************************************************************
     *************** Dalton - An Electronic Structure Program ***************
     ************************************************************************

    This is output from DALTON release Dalton2020.0 (2020)
         ( Web site: http://daltonprogram.org )

   ----------------------------------------------------------------------------

    NOTE:
     
    Dalton is an experimental code for the evaluation of molecular
    properties using (MC)SCF, DFT, CI, and CC wave functions.
    The authors accept no responsibility for the performance of
    the code or for the correctness of the results.
     
    The code (in whole or part) is provided under a licence and
    is not to be reproduced for further distribution without
    the written permission of the authors or their representatives.
     
    See the home page "http://daltonprogram.org" for further information.
     
    If results obtained with this code are published,
    the appropriate citations would be both of:
     
       K. Aidas, C. Angeli, K. L. Bak, V. Bakken, R. Bast,
       L. Boman, O. Christiansen, R. Cimiraglia, S. Coriani,
       P. Dahle, E. K. Dalskov, U. Ekstroem,
       T. Enevoldsen, J. J. Eriksen, P. Ettenhuber, B. Fernandez,
       L. Ferrighi, H. Fliegl, L. Frediani, K. Hald, A. Halkier,
       C. Haettig, H. Heiberg, T. Helgaker, A. C. Hennum,
       H. Hettema, E. Hjertenaes, S. Hoest, I.-M. Hoeyvik,
       M. F. Iozzi, B. Jansik, H. J. Aa. Jensen, D. Jonsson,
       P. Joergensen, J. Kauczor, S. Kirpekar,
       T. Kjaergaard, W. Klopper, S. Knecht, R. Kobayashi, H. Koch,
       J. Kongsted, A. Krapp, K. Kristensen, A. Ligabue,
       O. B. Lutnaes, J. I. Melo, K. V. Mikkelsen, R. H. Myhre,
       C. Neiss, C. B. Nielsen, P. Norman, J. Olsen,
       J. M. H. Olsen, A. Osted, M. J. Packer, F. Pawlowski,
       T. B. Pedersen, P. F. Provasi, S. Reine, Z. Rinkevicius,
       T. A. Ruden, K. Ruud, V. Rybkin, P. Salek, C. C. M. Samson,
       A. Sanchez de Meras, T. Saue, S. P. A. Sauer,
       B. Schimmelpfennig, K. Sneskov, A. H. Steindal,
       K. O. Sylvester-Hvid, P. R. Taylor, A. M. Teale,
       E. I. Tellgren, D. P. Tew, A. J. Thorvaldsen, L. Thoegersen,
       O. Vahtras, M. A. Watson, D. J. D. Wilson, M. Ziolkowski
       and H. Agren,
       "The Dalton quantum chemistry program system",
       WIREs Comput. Mol. Sci. 2014, 4:269–284 (doi: 10.1002/wcms.1172)
     
    and
     
       Dalton, a molecular electronic structure program,
       Release Dalton2020.0 (2020), see http://daltonprogram.org
   ----------------------------------------------------------------------------

    Authors in alphabetical order (Major contribution(s) in parenthesis):

  Kestutis Aidas,           Vilnius University,           Lithuania   (QM/MM)
  Celestino Angeli,         University of Ferrara,        Italy       (NEVPT2)
  Keld L. Bak,              UNI-C,                        Denmark     (AOSOPPA, non-adiabatic coupling, magnetic properties)
  Vebjoern Bakken,          University of Oslo,           Norway      (DALTON; geometry optimizer, symmetry detection)
  Radovan Bast,             UiT The Arctic U. of Norway,  Norway      (DALTON installation and execution frameworks)
  Pablo Baudin,             University of Valencia,       Spain       (Cholesky excitation energies)
  Linus Boman,              NTNU,                         Norway      (Cholesky decomposition and subsystems)
  Bruno N. Cabral Tenorio,  Technical Univ. of Denmark,   Denmark     (Lanczos-based CC methods)
  Ove Christiansen,         Aarhus University,            Denmark     (CC module)
  Renzo Cimiraglia,         University of Ferrara,        Italy       (NEVPT2)
  Sonia Coriani,            Technical Univ. of Denmark,   Denmark     (CC and RESPONS modules)
  Janusz Cukras,            University of Warsaw,         Poland      (MChD in RESPONS)
  Paal Dahle,               University of Oslo,           Norway      (Parallelization)
  Erik K. Dalskov,          UNI-C,                        Denmark     (SOPPA)
  Thomas Enevoldsen,        Univ. of Southern Denmark,    Denmark     (SOPPA)
  Janus J. Eriksen,         Aarhus University,            Denmark     (Polarizable embedding, TDA)
  Rasmus Faber,             Technical Univ. of Denmark,   Denmark     (Vib.avg. NMR w. SOPPA, parallel AO-SOPPA, CVS-CC and EOMCC)
  Tobias Fahleson,          KTH Stockholm,                Sweden      (Damped cubic response)
  Berta Fernandez,          U. of Santiago de Compostela, Spain       (Doublet spin, ESR in RESPONS)
  Lara Ferrighi,            Aarhus University,            Denmark     (PCM Cubic response)
  Heike Fliegl,             University of Oslo,           Norway      (CCSD(R12))
  Luca Frediani,            UiT The Arctic U. of Norway,  Norway      (PCM)
  Emmanuel Fromager,        Univ. Strasbourg,             France      (MC-srDFT)
  Bin Gao,                  UiT The Arctic U. of Norway,  Norway      (Gen1Int library)
  Andre S. P. Gomes,        CNRS/Universite de Lille,     France      (Frozen density embedding)
  Christof Haettig,         Ruhr-University Bochum,       Germany     (CC module)
  Kasper Hald,              Aarhus University,            Denmark     (CC module)
  Asger Halkier,            Aarhus University,            Denmark     (CC module)
  Frederik Beyer Hansen,    University of Copenhagen,     Denmark     (Parallel AO-SOPPA)
  Erik D. Hedegaard,        Univ. of Southern Denmark,    Denmark     (Polarizable embedding, QM/MM, and MC-srDFT)
  Hanne Heiberg,            University of Oslo,           Norway      (Geometry analysis, selected one-electron integrals)
  Trygve Helgaker,          University of Oslo,           Norway      (DALTON; ABACUS, ERI, DFT modules, London, and much more)
  Alf Christian Hennum,     University of Oslo,           Norway      (Parity violation)
  Hinne Hettema,            University of Auckland,       New Zealand (Quadratic response in RESPONS; SIRIUS supersymmetry)
  Eirik Hjertenaes,         NTNU,                         Norway      (Cholesky decomposition)
  Pi A. B. Haase,           University of Copenhagen,     Denmark     (Triplet AO-SOPPA)
  Maria Francesca Iozzi,    University of Oslo,           Norway      (RPA)
  Christoph Jacob           TU Braunschweig               Germany     (Frozen density embedding)
  Brano Jansik              Technical Univ. of Ostrava    Czech Rep.  (DFT cubic response)
  Hans Joergen Aa. Jensen,  Univ. of Southern Denmark,    Denmark     (DALTON; SIRIUS, RESPONS, ABACUS, MC-srDFT, and much more)
  Dan Jonsson,              UiT The Arctic U. of Norway,  Norway      (Cubic response in RESPONS module)
  Poul Joergensen,          Aarhus University,            Denmark     (RESPONS, ABACUS, and CC modules)
  Maciej Kaminski,          University of Warsaw,         Poland      (CPPh in RESPONS)
  Joanna Kauczor,           Linkoeping University,        Sweden      (Complex polarization propagator (CPP) module)
  Sheela Kirpekar,          Univ. of Southern Denmark,    Denmark     (Mass-velocity & Darwin integrals)
  Erik Kjellgren,           Univ. of Southern Denmark,    Denmark     (MC-srDFT)
  Wim Klopper,              KIT Karlsruhe,                Germany     (R12 code in CC, SIRIUS, and ABACUS modules)
  Stefan Knecht,            ETH Zurich,                   Switzerland (Parallel CI and MCSCF, MC-srDFT)
  Rika Kobayashi,           Australian National Univ.,    Australia   (DIIS in CC, London in MCSCF)
  Henrik Koch,              NTNU,                         Norway      (CC module, Cholesky decomposition)
  Jacob Kongsted,           Univ. of Southern Denmark,    Denmark     (Polarizable embedding, polarizable density embedding, QM/MM)
  Andrea Ligabue,           University of Modena,         Italy       (CTOCD, AOSOPPA)
  Nanna H. List             Univ. of Southern Denmark,    Denmark     (Polarizable embedding)
  Ola B. Lutnaes,           University of Oslo,           Norway      (DFT Hessian)
  Juan I. Melo,             University of Buenos Aires,   Argentina   (LRESC, Relativistic Effects on NMR Shieldings)
  Kurt V. Mikkelsen,        University of Copenhagen,     Denmark     (MC-SCRF and QM/MM)
  Rolf H. Myhre,            NTNU,                         Norway      (Subsystems and CC3)
  Christian Neiss,          Univ. Erlangen-Nuernberg,     Germany     (CCSD(R12))
  Christian B. Nielsen,     University of Copenhagen,     Denmark     (QM/MM)
  Patrick Norman,           KTH Stockholm,                Sweden      (Cubic response and complex frequency response in RESPONS)
  Jeppe Olsen,              Aarhus University,            Denmark     (SIRIUS CI/density modules)
  Jogvan Magnus H. Olsen,   Aarhus University,            Denmark     (Polarizable embedding and polarizable density embedding)
  Anders Osted,             Copenhagen University,        Denmark     (QM/MM)
  Martin J. Packer,         University of Sheffield,      UK          (SOPPA)
  Filip Pawlowski,          Kazimierz Wielki University,  Poland      (CC3)
  Morten N. Pedersen,       Univ. of Southern Denmark,    Denmark     (Polarizable embedding)
  Thomas B. Pedersen,       University of Oslo,           Norway      (Cholesky decomposition)
  Patricio F. Provasi,      University of Northeastern,   Argentina   (Analysis of coupling constants in localized orbitals)
  Peter Reinholdt,          Univ. of Southern Denmark,    Denmark     (Polarizable embedding and polarizable density embedding)
  Zilvinas Rinkevicius,     KTH Stockholm,                Sweden      (open-shell DFT, ESR)
  Elias Rudberg,            KTH Stockholm,                Sweden      (DFT grid and basis info)
  Torgeir A. Ruden,         University of Oslo,           Norway      (Numerical derivatives in ABACUS)
  Kenneth Ruud,             UiT The Arctic U. of Norway,  Norway      (DALTON; ABACUS magnetic properties and much more)
  Pawel Salek,              KTH Stockholm,                Sweden      (DALTON; DFT code)
  Claire C. M. Samson       University of Karlsruhe       Germany     (Boys localization, r12 integrals in ERI)
  Alfredo Sanchez de Meras, University of Valencia,       Spain       (CC module, Cholesky decomposition)
  Trond Saue,               Paul Sabatier University,     France      (direct Fock matrix construction)
  Stephan P. A. Sauer,      University of Copenhagen,     Denmark     (SOPPA(CCSD), SOPPA prop., AOSOPPA, vibrational g-factors)
  Bernd Schimmelpfennig,    Forschungszentrum Karlsruhe,  Germany     (AMFI module)
  Anna K. Schnack-Petersen, University of Copenhagen,     Denmark     (RPA(D) and HRPA(D) properties in AOSOPPA)
  Kristian Sneskov,         Aarhus University,            Denmark     (Polarizable embedding, QM/MM)
  Arnfinn H. Steindal,      UiT The Arctic U. of Norway,  Norway      (parallel QM/MM, polarizable embedding)
  Casper Steinmann,         Aalborg University,           Denmark     (QFIT, polarizable embedding)
  K. O. Sylvester-Hvid,     University of Copenhagen,     Denmark     (MC-SCRF)
  Peter R. Taylor,          VLSCI/Univ. of Melbourne,     Australia   (Symmetry handling ABACUS, integral transformation)
  Andrew M. Teale,          University of Nottingham,     England     (DFT-AC, DFT-D)
  David P. Tew,             University of Bristol,        England     (CCSD(R12))
  Julien Toulouse,          Sorbonne Univ.,               France      (MC-srDFT)
  Olav Vahtras,             KTH Stockholm,                Sweden      (Triplet response, spin-orbit, ESR, TDDFT, open-shell DFT)
  Lucas Visscher,           Vrije Universiteit Amsterdam, Netherlands (Frozen density embedding)
  David J. Wilson,          La Trobe University,          Australia   (DFT Hessian and DFT magnetizabilities)
  Hans Agren,               KTH Stockholm,                Sweden      (SIRIUS module, RESPONS, MC-SCRF solvation)
 --------------------------------------------------------------------------------

     Date and time (Linux)  : Wed Apr 30 00:25:28 2025
     Host name              : xm028                                   

 * Work memory size             :    64000000 =  488.28 megabytes.

 * Directories for basis set searches:
   1) /gpfs/projects/rjh/adrian/summer2025/beta_projects/raw_data/NLO/dalton/hf/n12/excited-state
   2) /gpfs/projects/rjh/adrian/dalton/build/basis


Compilation information
-----------------------

 Who compiled             | ahurtado
 Host                     | milan2
 System                   | Linux-5.14.0-427.42.1.el9_4.x86_64
 CMake generator          | Unix Makefiles
 Processor                | x86_64
 64-bit integers          | OFF
 MPI                      | ON
 Fortran compiler         | /gpfs/software/openmpi/milan/gcc13.2/4.1.6/bin/mpi
                          | f90
 Fortran compiler version | GNU Fortran (GCC) 13.2.0
 C compiler               | /gpfs/software/openmpi/milan/gcc13.2/4.1.6/bin/mpi
                          | cc
 C compiler version       | gcc (GCC) 13.2.0
 C++ compiler             | /gpfs/software/openmpi/milan/gcc13.2/4.1.6/bin/mpi
                          | cxx
 C++ compiler version     | unknown
 BLAS                     | /gpfs/software/intel/oneAPI/2024_2/mkl/2024.2/lib/
                          | intel64/libmkl_gf_lp64.so;/gpfs/software/intel/one
                          | API/2024_2/mkl/2024.2/lib/intel64/libmkl_sequentia
                          | l.so;/gpfs/software/intel/oneAPI/2024_2/mkl/2024.2
                          | /lib/intel64/libmkl_core.so;/usr/lib64/libpthread.
                          | a;/usr/lib64/libm.so
 LAPACK                   | /gpfs/software/intel/oneAPI/2024_2/mkl/2024.2/lib/
                          | intel64/libmkl_lapack95_lp64.a;/gpfs/software/inte
                          | l/oneAPI/2024_2/mkl/2024.2/lib/intel64/libmkl_gf_l
                          | p64.so
 Static linking           | OFF
 Last Git revision        | 66052b3af5ea7225e31178bf9a8b031913c72190
 Git branch               | (HEAD detached at Dalton2020.0)
 Configuration time       | 2025-04-10 16:02:31.569498

 * MPI parallel run using 192 processes.


   Content of the .dal input file
 ----------------------------------

**DALTON INPUT
.RUN PROPERTIES
.DIRECT
**WAVE FUNCTIONS
.HF
**PROPERTIES
.EXCITA
*EXCITA
.NEXCIT
   4  4  4  4  4  4  4  4  4  4
**END OF DALTON INPUT


   Content of the .mol file
 ----------------------------

BASIS
aug-cc-pVTZ
blah
blah
Atomtype=4 Angstrom Charge=0 Nosymmetry
Charge=6 Atoms=24
C_a 0.3580729984542411 -3.23821500246098 0.0
C_b 0.6668920025089234 -1.8967230021925146 0.0
C_c -0.31386499980588656 -0.8461899999464687 0.0
C_d 0.0 0.49460499985073547 0.0
C_e -0.9760669999485396 1.5491160018178671 0.0
C_f -0.6568810015786077 2.8888150015269645 0.0
C_g -1.6277509997671062 3.94816100041609 0.0
C_h -1.301926002321602 5.286146000431598 0.0
C_i -2.266093997595825 6.352103999775008 0.0
C_j -1.9310690003377617 7.687350999860106 0.0
C_k -2.8855839989400045 8.763118997462131 0.0
C_l -2.5364960008893993 10.093720001557799 0.0
C_m -3.475062000536728 11.185541997456877 0.0
C_n -3.1003099978736817 12.50702899832849 0.0
C_o -4.006745997738482 13.627608997447128 0.0
C_p -3.5646809975535416 14.924006997663415 0.0
C_q 3.246977002296268 -12.722374002304349 0.0
C_r 3.505096998325759 -11.394324997641315 0.0
C_s 2.469080999168377 -10.384737997547434 0.0
C_t 2.747355000313701 -9.04300299910383 0.0
C_u 1.7412740003278493 -8.010249001734408 0.0
C_v 2.034720999091044 -6.6680930004855385 0.0
C_w 1.0413089989552107 -5.626705000664547 0.0
C_x 1.3440610021648778 -4.284781001288378 0.0
Charge=7 Atoms=2
N_a -4.34941500213885 16.045511998546303 0.0
N_b 4.329315999702294 -13.700565998010687 0.0
Charge=8 Atoms=2
O_a 3.975711998044059 -14.88588500261371 0.0
O_b 5.495162002633667 -13.299550999175127 0.0
Charge=1 Atoms=26
H_a -0.7010630017506021 -3.5345659987538016 0.0
H_b 1.7270470022259492 -1.602783000772771 0.0
H_c -1.3743469992884736 -1.1379549983620045 0.0
H_d 1.0614080013917666 0.7841610009180505 0.0
H_e -2.0377939999464423 1.2617729986784856 0.0
H_f 0.4058810002503279 3.1736170015361505 0.0
H_g -2.69087900172203 3.666001002299527 0.0
H_h -0.23745300123386257 5.5648799994508416 0.0
H_i -3.331021000979687 6.076852997530446 0.0
H_j -0.8641970008243106 7.957424997951419 0.0
H_k -3.9530280019757846 8.49803499758959 0.0
H_l -1.4658389978753656 10.349718002264273 0.0
H_m -4.546436001628814 10.937914998128267 0.0
H_n -2.0230369991174233 12.73533200170443 0.0
H_o -5.086749000557497 13.426423997738299 0.0
H_p -2.4860810022731745 15.125354999828447 0.0
H_q -5.357553998755857 15.972702998265024 0.0
H_r -3.9401509984395693 16.966787000540688 0.0
H_s 2.2588980024636176 -13.186488001780075 0.0
H_t 4.555452001233451 -11.07896899871019 0.0
H_u 1.4211929992497394 -10.714244999441236 0.0
H_v 3.8003869996029587 -8.72551199767385 0.0
H_w 0.687156002399766 -8.322594998357067 0.0
H_x 3.091255998053547 -6.361639000512555 0.0
H_y -0.01596000054912352 -5.9291510018603715 0.0
H_z 2.4027659981151746 -3.985781002088436 0.0


       *******************************************************************
       *********** Output from DALTON general input processing ***********
       *******************************************************************

 --------------------------------------------------------------------------------
   Overall default print level:    0
   Print level for DALTON.STAT:    1

    Parallel calculation using MPI
    AO-direct calculation (in sections where implemented)
    HERMIT 1- and 2-electron integral sections will be executed
    "Old" integral transformation used (limited to max 255 basis functions)
    Wave function sections will be executed (SIRIUS module)
    Static molecular property section will be executed (ABACUS module)
 --------------------------------------------------------------------------------


   ****************************************************************************
   *************** Output of molecule and basis set information ***************
   ****************************************************************************


    The two title cards from your ".mol" input:
    ------------------------------------------------------------------------
 1: blah                                                                    
 2: blah                                                                    
    ------------------------------------------------------------------------

  Coordinates are entered in Angstrom and converted to atomic units.
          - Conversion factor : 1 bohr = 0.52917721 A

  Atomic type no.    1
  --------------------
  Nuclear charge:   6.00000
  Number of symmetry independent centers:   24
  Number of basis sets to read;    2
  Basis set file used for this atomic type with Z =   6 :
     "/gpfs/projects/rjh/adrian/dalton/build/basis/aug-cc-pVTZ"

  Atomic type no.    2
  --------------------
  Nuclear charge:   7.00000
  Number of symmetry independent centers:    2
  Number of basis sets to read;    2
  Basis set file used for this atomic type with Z =   7 :
     "/gpfs/projects/rjh/adrian/dalton/build/basis/aug-cc-pVTZ"

  Atomic type no.    3
  --------------------
  Nuclear charge:   8.00000
  Number of symmetry independent centers:    2
  Number of basis sets to read;    2
  Basis set file used for this atomic type with Z =   8 :
     "/gpfs/projects/rjh/adrian/dalton/build/basis/aug-cc-pVTZ"

  Atomic type no.    4
  --------------------
  Nuclear charge:   1.00000
  Number of symmetry independent centers:   26
  Number of basis sets to read;    2
  Basis set file used for this atomic type with Z =   1 :
     "/gpfs/projects/rjh/adrian/dalton/build/basis/aug-cc-pVTZ"


                         SYMGRP: Point group information
                         -------------------------------

@    Point group: C1 


                                 Isotopic Masses
                                 ---------------

                           C_a        12.000000
                           C_b        12.000000
                           C_c        12.000000
                           C_d        12.000000
                           C_e        12.000000
                           C_f        12.000000
                           C_g        12.000000
                           C_h        12.000000
                           C_i        12.000000
                           C_j        12.000000
                           C_k        12.000000
                           C_l        12.000000
                           C_m        12.000000
                           C_n        12.000000
                           C_o        12.000000
                           C_p        12.000000
                           C_q        12.000000
                           C_r        12.000000
                           C_s        12.000000
                           C_t        12.000000
                           C_u        12.000000
                           C_v        12.000000
                           C_w        12.000000
                           C_x        12.000000
                           N_a        14.003074
                           N_b        14.003074
                           O_a        15.994915
                           O_b        15.994915
                           H_a         1.007825
                           H_b         1.007825
                           H_c         1.007825
                           H_d         1.007825
                           H_e         1.007825
                           H_f         1.007825
                           H_g         1.007825
                           H_h         1.007825
                           H_i         1.007825
                           H_j         1.007825
                           H_k         1.007825
                           H_l         1.007825
                           H_m         1.007825
                           H_n         1.007825
                           H_o         1.007825
                           H_p         1.007825
                           H_q         1.007825
                           H_r         1.007825
                           H_s         1.007825
                           H_t         1.007825
                           H_u         1.007825
                           H_v         1.007825
                           H_w         1.007825
                           H_x         1.007825
                           H_y         1.007825
                           H_z         1.007825

                       Total mass:   374.199428 amu
                       Natural abundance:  75.459 %

 Center-of-mass coordinates (a.u.):    0.093454   -0.289436    0.000000
 Center-of-mass coordinates (Angs):    0.049454   -0.153163    0.000000


  Atoms and basis sets
  --------------------

  Number of atom types :    4
  Total number of atoms:   54

  Basis set used is "aug-cc-pVTZ" from the basis set library.

  label    atoms   charge   prim   cont     basis
  ----------------------------------------------------------------------
  C_         24    6.0000    58    46      [11s6p3d2f|5s4p3d2f]                               
  N_          2    7.0000    58    46      [11s6p3d2f|5s4p3d2f]                               
  O_          2    8.0000    58    46      [11s6p3d2f|5s4p3d2f]                               
  H_         26    1.0000    25    23      [6s3p2d|4s3p2d]                                    
  ----------------------------------------------------------------------
  total:     54  200.0000  2274  1886
  ----------------------------------------------------------------------
  Spherical harmonic basis used.

  Threshold for neglecting AO integrals:  1.00D-12

  Max    interatomic separation is   32.8215 Angstrom (   62.0237 Bohr)
  between atoms   46 and   27, "H_r   " and "O_a   ".

  Min HX interatomic separation is    1.0081 Angstrom (    1.9050 Bohr)

  Min YX interatomic separation is    1.2329 Angstrom (    2.3298 Bohr)


  Bond distances (Angstrom):
  --------------------------

                  atom 1     atom 2       distance
                  ------     ------       --------
  bond distance:  C_b        C_a          1.376579
  bond distance:  C_c        C_b          1.437186
  bond distance:  C_d        C_c          1.377041
  bond distance:  C_e        C_d          1.436906
  bond distance:  C_f        C_e          1.377198
  bond distance:  C_g        C_f          1.436942
  bond distance:  C_h        C_g          1.377086
  bond distance:  C_i        C_h          1.437319
  bond distance:  C_j        C_i          1.376636
  bond distance:  C_k        C_j          1.438185
  bond distance:  C_l        C_k          1.375631
  bond distance:  C_m        C_l          1.439785
  bond distance:  C_n        C_m          1.373596
  bond distance:  C_o        C_n          1.441293
  bond distance:  C_p        C_o          1.369697
  bond distance:  C_r        C_q          1.352901
  bond distance:  C_s        C_r          1.446580
  bond distance:  C_t        C_s          1.370288
  bond distance:  C_u        C_t          1.441797
  bond distance:  C_v        C_u          1.373861
  bond distance:  C_w        C_v          1.439221
  bond distance:  C_x        C_a          1.437871
  bond distance:  C_x        C_w          1.375652
  bond distance:  N_a        C_p          1.368788
  bond distance:  N_b        C_q          1.458875
  bond distance:  O_a        N_b          1.236939
  bond distance:  O_b        N_b          1.232887
  bond distance:  H_a        C_a          1.099815
  bond distance:  H_b        C_b          1.100150
  bond distance:  H_c        C_c          1.099886
  bond distance:  H_d        C_d          1.100195
  bond distance:  H_e        C_e          1.099923
  bond distance:  H_f        C_f          1.100261
  bond distance:  H_g        C_g          1.099934
  bond distance:  H_h        C_h          1.100361
  bond distance:  H_i        C_i          1.099924
  bond distance:  H_j        C_j          1.100525
  bond distance:  H_k        C_k          1.099866
  bond distance:  H_l        C_l          1.100837
  bond distance:  H_m        C_m          1.099619
  bond distance:  H_n        C_n          1.101199
  bond distance:  H_o        C_o          1.098582
  bond distance:  H_p        C_p          1.097232
  bond distance:  H_q        N_a          1.010765
  bond distance:  H_r        N_a          1.008090
  bond distance:  H_s        C_q          1.091651
  bond distance:  H_t        C_r          1.096675
  bond distance:  H_u        C_s          1.098474
  bond distance:  H_v        C_t          1.099853
  bond distance:  H_w        C_u          1.099420
  bond distance:  H_x        C_v          1.100082
  bond distance:  H_y        C_w          1.099678
  bond distance:  H_z        C_x          1.100117


  Bond angles (degrees):
  ----------------------

                  atom 1     atom 2     atom 3         angle
                  ------     ------     ------         -----
  bond angle:     C_b        C_a        C_x          123.743
  bond angle:     C_b        C_a        H_a          118.596
  bond angle:     C_x        C_a        H_a          117.661
  bond angle:     C_a        C_b        C_c          124.003
  bond angle:     C_a        C_b        H_b          118.461
  bond angle:     C_c        C_b        H_b          117.536
  bond angle:     C_b        C_c        C_d          123.792
  bond angle:     C_b        C_c        H_c          117.650
  bond angle:     C_d        C_c        H_c          118.558
  bond angle:     C_c        C_d        C_e          124.037
  bond angle:     C_c        C_d        H_d          118.434
  bond angle:     C_e        C_d        H_d          117.528
  bond angle:     C_d        C_e        C_f          123.811
  bond angle:     C_d        C_e        H_e          117.644
  bond angle:     C_f        C_e        H_e          118.545
  bond angle:     C_e        C_f        C_g          124.094
  bond angle:     C_e        C_f        H_f          118.403
  bond angle:     C_g        C_f        H_f          117.503
  bond angle:     C_f        C_g        C_h          123.809
  bond angle:     C_f        C_g        H_g          117.641
  bond angle:     C_h        C_g        H_g          118.550
  bond angle:     C_g        C_h        C_i          124.184
  bond angle:     C_g        C_h        H_h          118.360
  bond angle:     C_i        C_h        H_h          117.456
  bond angle:     C_h        C_i        C_j          123.785
  bond angle:     C_h        C_i        H_i          117.638
  bond angle:     C_j        C_i        H_i          118.577
  bond angle:     C_i        C_j        C_k          124.333
  bond angle:     C_i        C_j        H_j          118.291
  bond angle:     C_k        C_j        H_j          117.376
  bond angle:     C_j        C_k        C_l          123.717
  bond angle:     C_j        C_k        H_k          117.636
  bond angle:     C_l        C_k        H_k          118.647
  bond angle:     C_k        C_l        C_m          124.616
  bond angle:     C_k        C_l        H_l          118.148
  bond angle:     C_m        C_l        H_l          117.236
  bond angle:     C_l        C_m        C_n          123.484
  bond angle:     C_l        C_m        H_m          117.669
  bond angle:     C_n        C_m        H_m          118.847
  bond angle:     C_m        C_n        C_o          125.198
  bond angle:     C_m        C_n        H_n          117.798
  bond angle:     C_o        C_n        H_n          117.004
  bond angle:     C_n        C_o        C_p          122.202
  bond angle:     C_n        C_o        H_o          118.417
  bond angle:     C_p        C_o        H_o          119.381
  bond angle:     C_o        C_p        N_a          126.190
  bond angle:     C_o        C_p        H_p          119.403
  bond angle:     N_a        C_p        H_p          114.407
  bond angle:     C_r        C_q        N_b          121.108
  bond angle:     C_r        C_q        H_s          126.159
  bond angle:     N_b        C_q        H_s          112.733
  bond angle:     C_q        C_r        C_s          123.261
  bond angle:     C_q        C_r        H_t          117.711
  bond angle:     C_s        C_r        H_t          119.028
  bond angle:     C_r        C_s        C_t          122.543
  bond angle:     C_r        C_s        H_u          118.285
  bond angle:     C_t        C_s        H_u          119.173
  bond angle:     C_s        C_t        C_u          124.033
  bond angle:     C_s        C_t        H_v          118.495
  bond angle:     C_u        C_t        H_v          117.472
  bond angle:     C_t        C_u        C_v          123.417
  bond angle:     C_t        C_u        H_w          117.745
  bond angle:     C_v        C_u        H_w          118.838
  bond angle:     C_u        C_v        C_w          124.018
  bond angle:     C_u        C_v        H_x          118.508
  bond angle:     C_w        C_v        H_x          117.474
  bond angle:     C_v        C_w        C_x          123.637
  bond angle:     C_v        C_w        H_y          117.685
  bond angle:     C_x        C_w        H_y          118.678
  bond angle:     C_a        C_x        C_w          123.993
  bond angle:     C_a        C_x        H_z          117.522
  bond angle:     C_w        C_x        H_z          118.484
  bond angle:     C_p        N_a        H_q          120.850
  bond angle:     C_p        N_a        H_r          121.066
  bond angle:     H_q        N_a        H_r          118.083
  bond angle:     C_q        N_b        O_a          115.496
  bond angle:     C_q        N_b        O_b          118.912
  bond angle:     O_a        N_b        O_b          125.593




 Principal moments of inertia (u*A**2) and principal axes
 --------------------------------------------------------

   IA     140.262994         -0.275195    0.961388    0.000000
   IB   37833.783511          0.961388    0.275195    0.000000
   IC   37974.046505          0.000000    0.000000    1.000000


 Rotational constants
 --------------------

@    The molecule is planar.

               A                   B                   C

           3603.0815             13.3579             13.3085 MHz
            0.120186            0.000446            0.000444 cm-1


@  Nuclear repulsion energy : 1740.311733291155 Hartree


                     .---------------------------------------.
                     | Starting in Integral Section (HERMIT) |
                     `---------------------------------------'



 ***************************************************************************************
 ****************** Output from **INTEGRALS input processing (HERMIT) ******************
 ***************************************************************************************


 - Using defaults, no **INTEGRALS input found

 Default print level:        1

 Calculation of one-electron Hamiltonian integrals.

 Center of mass  (bohr):      0.093454216468     -0.289436425668      0.000000000000
 Operator center (bohr):      0.000000000000      0.000000000000      0.000000000000
 Gauge origin    (bohr):      0.000000000000      0.000000000000      0.000000000000
 Dipole origin   (bohr):      0.000000000000      0.000000000000      0.000000000000


     ************************************************************************
     ************************** Output from HERINT **************************
     ************************************************************************



                      Nuclear contribution to dipole moments
                      --------------------------------------

                 au               Debye          C m (/(10**-30)

      x      0.00000383         0.00000973         0.00003247
      y     -0.00000583        -0.00001482        -0.00004943
      z      0.00000000         0.00000000         0.00000000


  Time used in ONEDRV     is       6.08 seconds
  Time used in HUCKEL     is       1.31 seconds
  Time used in OVERLAP    is       0.70 seconds
  Time used in POPOVLP    is       1.36 seconds
  Time used in R2         is       0.84 seconds
  Time used in R4         is       0.97 seconds
  Time used in DIPLEN     is       1.21 seconds
  Time used in QUADRUP    is       2.36 seconds
  Time used in KINENE     is       1.12 seconds
  Time used in GABGEN     is       6.74 seconds
  Total CPU  time used in HERMIT:  22.68 seconds
  Total wall time used in HERMIT:  22.87 seconds


                        .----------------------------------.
                        | End of Integral Section (HERMIT) |
                        `----------------------------------'



                   .--------------------------------------------.
                   | Starting in Wave Function Section (SIRIUS) |
                   `--------------------------------------------'



@ Primary orbitals are deleted during canonical orthonormalization
@   because of detected numerical linear dependence or too large coefficients.
@ Eigenvalue threshold for num. lin. dep. =  1.00D-06

@  12 MO components are deleted in symmetry    1
 Overlap eigenvalues of the deleted orbitals:
  9.46D-07  9.37D-07  9.26D-07  8.79D-07  8.24D-07
  6.00D-07  5.83D-07  4.73D-07  4.52D-07  2.99D-07
  1.49D-07  4.22D-08

 Max MO coeff. of last deleted MO & limit:  2.45D+02  1.00D+03

WARNING: Orbitals have been deleted because of numerical
   linear dependence although not requested in input.

 *** Output from Huckel module :

     Using EWMO model:          T
     Using EHT  model:          F
     Number of Huckel orbitals each symmetry:  166

 EWMO - Energy Weighted Maximum Overlap - is a Huckel type method,
        which normally is better than Extended Huckel Theory.
 Reference: Linderberg and Ohrn, Propagators in Quantum Chemistry (Wiley, 1973)

 Huckel EWMO eigenvalues for symmetry :  1
          -20.684753     -20.683497     -15.677079     -15.674962     -11.359394
          -11.359350     -11.359118     -11.359058     -11.358824     -11.358586
          -11.357741     -11.356591     -11.355230     -11.353765     -11.352311
          -11.351023     -11.348583     -11.347777     -11.346971     -11.346307
          -11.345818     -11.345522     -11.345464     -11.345425     -11.345311
          -11.345297     -11.345197     -11.345189      -1.964011      -1.792674
           -1.789301      -1.780329      -1.762146      -1.731489      -1.686309
           -1.626472      -1.553811      -1.473325      -1.442154      -1.378556
           -1.286931      -1.210078      -1.196357      -1.184738      -1.150264
           -1.104614      -1.101462      -1.047056      -1.014902      -0.985810
           -0.941618      -0.919563      -0.878671      -0.855342      -0.852013
           -0.825157      -0.817088      -0.783067      -0.764995      -0.747067
           -0.742305      -0.737399      -0.702586      -0.691743      -0.677046
           -0.662816      -0.654788      -0.634880      -0.620163      -0.615685
           -0.598782      -0.586029      -0.575561      -0.573885      -0.558293
           -0.540747      -0.532295      -0.530884      -0.523157      -0.507304
           -0.499012      -0.494633      -0.492781      -0.490185      -0.488753
           -0.486517      -0.484696      -0.479496      -0.479291      -0.474729
           -0.474639      -0.457411      -0.450656      -0.426088      -0.414608
           -0.398388      -0.382666      -0.376948      -0.363349      -0.355208
           -0.335806      -0.304341      -0.282961      -0.264085      -0.247935
           -0.234409      -0.229133      -0.223314      -0.214413      -0.207450
           -0.202165      -0.200917      -0.198323      -0.195725      -0.194224
           -0.190584      -0.166727      -0.142733      -0.138992      -0.135175
           -0.132643      -0.131589      -0.131336      -0.130637      -0.129925
           -0.129796      -0.129494      -0.129402      -0.128978      -0.128684
           -0.127673      -0.127369      -0.127185      -0.126476      -0.126268
           -0.126008      -0.125581      -0.124706      -0.124538      -0.123961
           -0.123650      -0.123200      -0.112568      -0.111634      -0.108803
           -0.106726      -0.104118      -0.101936      -0.099435      -0.097321
           -0.094962      -0.093758      -0.091421      -0.090788      -0.088993
           -0.088193      -0.087181      -0.086294      -0.085735      -0.085136
           -0.084454      -0.083192      -0.081955      -0.080787      -0.079839
           -0.079342

 **********************************************************************
 *SIRIUS* a direct, restricted step, second order MCSCF program       *
 **********************************************************************

 
     Date and time (Linux)  : Wed Apr 30 00:32:11 2025
     Host name              : xm028                                   

 Title lines from ".mol" input file:
     blah                                                                    
     blah                                                                    

 Print level on unit LUPRI =   2 is   0
 Print level on unit LUW4  =   2 is   5

@    Restricted, closed shell Hartree-Fock calculation.
 Fock matrices are calculated directly and in parallel without use of integrals on disk.

 Initial molecular orbitals are obtained according to
 ".MOSTART EWMO  " input option

     Wave function specification
     ============================
@    Wave function type        --- HF ---
@    Number of closed shell electrons         200
@    Number of electrons in active shells       0
@    Total charge of the molecule               0

@    Spin multiplicity and 2 M_S                1         0
@    Total number of symmetries                 1 (point group: C1 )
@    Reference state symmetry                   1 (irrep name : A  )

     Orbital specifications
     ======================
@    Abelian symmetry species          All |    1
@                                          |  A  
                                       --- |  ---
@    Occupied SCF orbitals             100 |  100
@    Secondary orbitals               1774 | 1774
@    Total number of orbitals         1874 | 1874
@    Number of basis functions        1886 | 1886

     Optimization information
     ========================
@    Number of configurations                 1
@    Number of orbital rotations         177400
     ------------------------------------------
@    Total number of variables           177401

     Maximum number of Fock   iterations      0
     Maximum number of DIIS   iterations     60
     Maximum number of QC-SCF iterations     60
     Threshold for SCF convergence     1.00D-05


 ***********************************************
 ***** DIIS acceleration of SCF iterations *****
 ***********************************************

 C1-DIIS algorithm; max error vectors =    8

 Iter      Total energy        Error norm    Delta(E)  DIIS dim.
 -----------------------------------------------------------------------------
   1  Screening settings (-IFTHRS, JTDIIS, DIFDEN, times)  -10    1    T  1.02D+02  1.03D+02
@  1    -1178.26368372        8.25786D+00   -1.18D+03    1
      Virial theorem: -V/T =      2.011937
@    MULPOP   C_a     0.03; C_b     0.06; C_c     0.01; C_d     0.02; C_e    -0.03; C_f     0.06; C_g     0.00; C_h     0.06; C_i    -0.01; C_j     0.08; 
@             C_k    -0.02; C_l     0.03; C_m    -0.14; C_n    -0.06; C_o    -0.08; C_p     0.32; C_q     0.18; C_r    -0.05; C_s    -0.06; C_t    -0.01; 
@             C_u     0.01; C_v     0.07; C_w     0.03; C_x     0.07; N_a    -0.71; N_b     0.63; O_a    -0.91; O_b    -0.96; H_a    -0.01; H_b     0.01; 
@    MULPOP    dipole moment & components:     34.0441;      -11.6423     31.9916      0.0000
   1  Level shift: doubly occupied orbital energies shifted by -2.00D-01
 -----------------------------------------------------------------------------
   2  Screening settings (-IFTHRS, JTDIIS, DIFDEN, times)  -10    2    T  1.00D+02  1.01D+02
@  2    -1182.12190697        3.08836D+00   -3.86D+00    2
      Virial theorem: -V/T =      2.000500
@    MULPOP   C_a    -0.15; C_b    -0.05; C_c    -0.06; C_d    -0.05; C_e    -0.05; C_f    -0.04; C_g    -0.08; C_h    -0.12; C_i    -0.14; C_j    -0.08; 
@             C_k    -0.08; C_l    -0.01; C_m     0.02; C_n     0.01; C_o     0.15; C_p    -0.50; C_q    -0.85; C_r     0.22; C_s    -0.10; C_t     0.12; 
@             C_u    -0.06; C_v    -0.11; C_w    -0.12; C_x    -0.15; N_a    -0.55; N_b     0.25; O_a    -0.19; O_b    -0.34; H_a     0.07; H_b     0.10; 
@    MULPOP    dipole moment & components:     12.0581;       -3.2220     11.6196      0.0000
   2  Level shift: doubly occupied orbital energies shifted by -1.00D-01
 -----------------------------------------------------------------------------
   3  Screening settings (-IFTHRS, JTDIIS, DIFDEN, times)  -10    3    T  9.54D+01  9.62D+01
@  3    -1182.61294266        1.09429D+00   -4.91D-01    3
      Virial theorem: -V/T =      2.001854
@    MULPOP   C_a    -0.17; C_b    -0.07; C_c    -0.11; C_d    -0.06; C_e    -0.10; C_f    -0.06; C_g    -0.10; C_h    -0.15; C_i    -0.20; C_j    -0.11; 
@             C_k    -0.13; C_l    -0.03; C_m    -0.07; C_n     0.05; C_o     0.03; C_p    -0.39; C_q    -0.60; C_r     0.24; C_s    -0.08; C_t     0.11; 
@             C_u    -0.09; C_v    -0.11; C_w    -0.14; C_x    -0.16; N_a    -0.54; N_b     0.94; O_a    -0.77; O_b    -0.72; H_a     0.10; H_b     0.12; 
@    MULPOP    dipole moment & components:     10.3507;       -2.9532      9.9205      0.0000
   3  Level shift: doubly occupied orbital energies shifted by -5.00D-02
 -----------------------------------------------------------------------------
   4  Screening settings (-IFTHRS, JTDIIS, DIFDEN, times)  -10    4    T  9.20D+01  9.25D+01
@  4    -1182.68752382        3.19313D-01   -7.46D-02    4
      Virial theorem: -V/T =      2.003455
@    MULPOP   C_a    -0.18; C_b    -0.07; C_c    -0.11; C_d    -0.05; C_e    -0.10; C_f    -0.06; C_g    -0.12; C_h    -0.14; C_i    -0.20; C_j    -0.12; 
@             C_k    -0.14; C_l    -0.02; C_m    -0.08; C_n     0.05; C_o     0.00; C_p    -0.37; C_q    -0.66; C_r     0.21; C_s    -0.10; C_t     0.11; 
@             C_u    -0.10; C_v    -0.10; C_w    -0.15; C_x    -0.15; N_a    -0.55; N_b     0.72; O_a    -0.62; O_b    -0.66; H_a     0.11; H_b     0.12; 
@    MULPOP    dipole moment & components:      8.9531;       -2.3998      8.6255      0.0000
   4  Level shift: doubly occupied orbital energies shifted by -2.50D-02
 -----------------------------------------------------------------------------
   5  Screening settings (-IFTHRS, JTDIIS, DIFDEN, times)  -14    5    F  1.24D+02  1.24D+02
@  5    -1182.70288058        1.34631D-01   -1.54D-02    5
      Virial theorem: -V/T =      2.002750
@    MULPOP   C_a    -0.19; C_b    -0.08; C_c    -0.12; C_d    -0.06; C_e    -0.11; C_f    -0.07; C_g    -0.12; C_h    -0.15; C_i    -0.21; C_j    -0.13; 
@             C_k    -0.15; C_l    -0.03; C_m    -0.09; C_n     0.04; C_o    -0.01; C_p    -0.38; C_q    -0.65; C_r     0.20; C_s    -0.11; C_t     0.10; 
@             C_u    -0.12; C_v    -0.11; C_w    -0.16; C_x    -0.16; N_a    -0.57; N_b     0.78; O_a    -0.66; O_b    -0.66; H_a     0.12; H_b     0.13; 
@    MULPOP    dipole moment & components:      8.1452;       -2.0335      7.8873      0.0000
   5  Level shift: doubly occupied orbital energies shifted by -1.25D-02
 -----------------------------------------------------------------------------
   6  Screening settings (-IFTHRS, JTDIIS, DIFDEN, times)  -14    6    T  1.14D+02  1.15D+02
@  6    -1182.70751551        7.13313D-02   -4.63D-03    6
      Virial theorem: -V/T =      2.002625
@    MULPOP   C_a    -0.19; C_b    -0.08; C_c    -0.12; C_d    -0.06; C_e    -0.11; C_f    -0.08; C_g    -0.13; C_h    -0.15; C_i    -0.21; C_j    -0.13; 
@             C_k    -0.15; C_l    -0.03; C_m    -0.10; C_n     0.04; C_o    -0.00; C_p    -0.38; C_q    -0.66; C_r     0.21; C_s    -0.11; C_t     0.10; 
@             C_u    -0.12; C_v    -0.11; C_w    -0.17; C_x    -0.17; N_a    -0.57; N_b     0.77; O_a    -0.64; O_b    -0.67; H_a     0.12; H_b     0.13; 
@    MULPOP    dipole moment & components:      7.6292;       -1.8930      7.3907      0.0000
   6  Level shift: doubly occupied orbital energies shifted by -1.25D-02
 -----------------------------------------------------------------------------
   7  Screening settings (-IFTHRS, JTDIIS, DIFDEN, times)  -14    7    T  1.13D+02  1.13D+02
@  7    -1182.70911149        3.45214D-02   -1.60D-03    7
      Virial theorem: -V/T =      2.002658
@    MULPOP   C_a    -0.19; C_b    -0.08; C_c    -0.12; C_d    -0.06; C_e    -0.11; C_f    -0.07; C_g    -0.13; C_h    -0.15; C_i    -0.21; C_j    -0.13; 
@             C_k    -0.15; C_l    -0.03; C_m    -0.10; C_n     0.04; C_o    -0.00; C_p    -0.39; C_q    -0.66; C_r     0.20; C_s    -0.11; C_t     0.10; 
@             C_u    -0.12; C_v    -0.11; C_w    -0.17; C_x    -0.16; N_a    -0.58; N_b     0.77; O_a    -0.65; O_b    -0.66; H_a     0.12; H_b     0.13; 
@    MULPOP    dipole moment & components:      7.2981;       -1.7521      7.0847      0.0000
 -----------------------------------------------------------------------------
   8  Screening settings (-IFTHRS, JTDIIS, DIFDEN, times)  -14    8    T  1.11D+02  1.11D+02
@  8    -1182.70952447        1.53626D-02   -4.13D-04    8
      Virial theorem: -V/T =      2.002650
@    MULPOP   C_a    -0.19; C_b    -0.08; C_c    -0.12; C_d    -0.06; C_e    -0.11; C_f    -0.08; C_g    -0.12; C_h    -0.15; C_i    -0.21; C_j    -0.14; 
@             C_k    -0.15; C_l    -0.03; C_m    -0.10; C_n     0.04; C_o    -0.00; C_p    -0.39; C_q    -0.66; C_r     0.20; C_s    -0.11; C_t     0.10; 
@             C_u    -0.12; C_v    -0.11; C_w    -0.17; C_x    -0.16; N_a    -0.58; N_b     0.77; O_a    -0.65; O_b    -0.66; H_a     0.12; H_b     0.13; 
@    MULPOP    dipole moment & components:      7.0008;       -1.6877      6.7943      0.0000
 -----------------------------------------------------------------------------
   9  Screening settings (-IFTHRS, JTDIIS, DIFDEN, times)  -14    9    T  1.09D+02  1.09D+02
@  9    -1182.70958287        6.16880D-03   -5.84D-05    8
      Virial theorem: -V/T =      2.002642
@    MULPOP   C_a    -0.19; C_b    -0.08; C_c    -0.12; C_d    -0.06; C_e    -0.11; C_f    -0.08; C_g    -0.12; C_h    -0.15; C_i    -0.21; C_j    -0.14; 
@             C_k    -0.15; C_l    -0.03; C_m    -0.09; C_n     0.04; C_o    -0.00; C_p    -0.39; C_q    -0.66; C_r     0.21; C_s    -0.11; C_t     0.10; 
@             C_u    -0.12; C_v    -0.11; C_w    -0.17; C_x    -0.16; N_a    -0.58; N_b     0.77; O_a    -0.65; O_b    -0.66; H_a     0.12; H_b     0.13; 
@    MULPOP    dipole moment & components:      6.8665;       -1.6589      6.6631      0.0000
 -----------------------------------------------------------------------------
  10  Screening settings (-IFTHRS, JTDIIS, DIFDEN, times)  -14   10    T  1.07D+02  1.07D+02
@ 10    -1182.70959915        3.71160D-03   -1.63D-05    8
      Virial theorem: -V/T =      2.002643
@    MULPOP   C_a    -0.19; C_b    -0.08; C_c    -0.12; C_d    -0.06; C_e    -0.11; C_f    -0.08; C_g    -0.12; C_h    -0.15; C_i    -0.21; C_j    -0.14; 
@             C_k    -0.15; C_l    -0.03; C_m    -0.09; C_n     0.04; C_o    -0.00; C_p    -0.39; C_q    -0.66; C_r     0.20; C_s    -0.11; C_t     0.10; 
@             C_u    -0.12; C_v    -0.11; C_w    -0.17; C_x    -0.16; N_a    -0.58; N_b     0.77; O_a    -0.65; O_b    -0.66; H_a     0.12; H_b     0.13; 
@    MULPOP    dipole moment & components:      6.7597;       -1.6486      6.5556      0.0000
 -----------------------------------------------------------------------------
  11  Screening settings (-IFTHRS, JTDIIS, DIFDEN, times)  -14   11    T  1.05D+02  1.06D+02
@ 11    -1182.70960631        2.32650D-03   -7.16D-06    8
      Virial theorem: -V/T =      2.002644
@    MULPOP   C_a    -0.19; C_b    -0.08; C_c    -0.12; C_d    -0.06; C_e    -0.11; C_f    -0.08; C_g    -0.12; C_h    -0.15; C_i    -0.21; C_j    -0.14; 
@             C_k    -0.14; C_l    -0.03; C_m    -0.09; C_n     0.04; C_o    -0.00; C_p    -0.39; C_q    -0.66; C_r     0.20; C_s    -0.11; C_t     0.10; 
@             C_u    -0.12; C_v    -0.11; C_w    -0.16; C_x    -0.16; N_a    -0.58; N_b     0.77; O_a    -0.65; O_b    -0.66; H_a     0.12; H_b     0.13; 
@    MULPOP    dipole moment & components:      6.6765;       -1.6417      6.4715      0.0000
 -----------------------------------------------------------------------------
  12  Screening settings (-IFTHRS, JTDIIS, DIFDEN, times)  -14   12    T  1.04D+02  1.05D+02
@ 12    -1182.70960953        8.74707D-04   -3.22D-06    8
      Virial theorem: -V/T =      2.002642
@    MULPOP   C_a    -0.19; C_b    -0.08; C_c    -0.12; C_d    -0.06; C_e    -0.11; C_f    -0.08; C_g    -0.12; C_h    -0.15; C_i    -0.20; C_j    -0.14; 
@             C_k    -0.14; C_l    -0.03; C_m    -0.09; C_n     0.04; C_o    -0.00; C_p    -0.39; C_q    -0.66; C_r     0.20; C_s    -0.11; C_t     0.10; 
@             C_u    -0.12; C_v    -0.11; C_w    -0.16; C_x    -0.16; N_a    -0.58; N_b     0.77; O_a    -0.65; O_b    -0.66; H_a     0.12; H_b     0.13; 
@    MULPOP    dipole moment & components:      6.6001;       -1.6362      6.3940      0.0000
 -----------------------------------------------------------------------------
  13  Screening settings (-IFTHRS, JTDIIS, DIFDEN, times)  -14   13    T  1.02D+02  1.03D+02
@ 13    -1182.70960996        3.72510D-04   -4.32D-07    8
      Virial theorem: -V/T =      2.002643
@    MULPOP   C_a    -0.19; C_b    -0.08; C_c    -0.11; C_d    -0.06; C_e    -0.11; C_f    -0.08; C_g    -0.12; C_h    -0.15; C_i    -0.20; C_j    -0.14; 
@             C_k    -0.14; C_l    -0.03; C_m    -0.09; C_n     0.04; C_o    -0.00; C_p    -0.39; C_q    -0.66; C_r     0.20; C_s    -0.11; C_t     0.10; 
@             C_u    -0.12; C_v    -0.11; C_w    -0.16; C_x    -0.16; N_a    -0.58; N_b     0.77; O_a    -0.65; O_b    -0.66; H_a     0.12; H_b     0.13; 
@    MULPOP    dipole moment & components:      6.5704;       -1.6343      6.3639      0.0000
 -----------------------------------------------------------------------------
  14  Screening settings (-IFTHRS, JTDIIS, DIFDEN, times)  -14   14    T  9.79D+01  9.85D+01
@ 14    -1182.70961000        1.86083D-04   -4.03D-08    8
      Virial theorem: -V/T =      2.002643
@    MULPOP   C_a    -0.19; C_b    -0.08; C_c    -0.11; C_d    -0.06; C_e    -0.11; C_f    -0.08; C_g    -0.12; C_h    -0.15; C_i    -0.20; C_j    -0.14; 
@             C_k    -0.14; C_l    -0.03; C_m    -0.09; C_n     0.04; C_o    -0.00; C_p    -0.39; C_q    -0.66; C_r     0.20; C_s    -0.11; C_t     0.10; 
@             C_u    -0.12; C_v    -0.11; C_w    -0.16; C_x    -0.16; N_a    -0.58; N_b     0.77; O_a    -0.65; O_b    -0.66; H_a     0.12; H_b     0.13; 
@    MULPOP    dipole moment & components:      6.5640;       -1.6339      6.3573      0.0000
 -----------------------------------------------------------------------------
  15  Screening settings (-IFTHRS, JTDIIS, DIFDEN, times)  -14   15    T  9.58D+01  9.63D+01
@ 15    -1182.70961001        8.33609D-05   -8.72D-09    8
      Virial theorem: -V/T =      2.002643
@    MULPOP   C_a    -0.19; C_b    -0.08; C_c    -0.11; C_d    -0.06; C_e    -0.11; C_f    -0.08; C_g    -0.12; C_h    -0.15; C_i    -0.20; C_j    -0.14; 
@             C_k    -0.14; C_l    -0.03; C_m    -0.09; C_n     0.04; C_o    -0.00; C_p    -0.39; C_q    -0.66; C_r     0.20; C_s    -0.11; C_t     0.10; 
@             C_u    -0.12; C_v    -0.11; C_w    -0.16; C_x    -0.16; N_a    -0.58; N_b     0.77; O_a    -0.65; O_b    -0.66; H_a     0.12; H_b     0.13; 
@    MULPOP    dipole moment & components:      6.5613;       -1.6338      6.3546      0.0000
 -----------------------------------------------------------------------------
  16  Screening settings (-IFTHRS, JTDIIS, DIFDEN, times)  -14   16    T  9.23D+01  9.29D+01
@ 16    -1182.70961001        3.74820D-05   -1.20D-09    8
      Virial theorem: -V/T =      2.002643
@    MULPOP   C_a    -0.19; C_b    -0.08; C_c    -0.11; C_d    -0.06; C_e    -0.11; C_f    -0.08; C_g    -0.12; C_h    -0.15; C_i    -0.20; C_j    -0.14; 
@             C_k    -0.14; C_l    -0.03; C_m    -0.09; C_n     0.04; C_o    -0.00; C_p    -0.39; C_q    -0.66; C_r     0.20; C_s    -0.11; C_t     0.10; 
@             C_u    -0.12; C_v    -0.11; C_w    -0.16; C_x    -0.16; N_a    -0.58; N_b     0.77; O_a    -0.65; O_b    -0.66; H_a     0.12; H_b     0.13; 
@    MULPOP    dipole moment & components:      6.5608;       -1.6337      6.3541      0.0000
 -----------------------------------------------------------------------------
  17  Screening settings (-IFTHRS, JTDIIS, DIFDEN, times)  -14   17    T  9.17D+01  9.23D+01
@ 17    -1182.70961001        2.49624D-05   -4.07D-10    8
      Virial theorem: -V/T =      2.002643
@    MULPOP   C_a    -0.19; C_b    -0.08; C_c    -0.11; C_d    -0.06; C_e    -0.11; C_f    -0.08; C_g    -0.12; C_h    -0.15; C_i    -0.20; C_j    -0.14; 
@             C_k    -0.14; C_l    -0.03; C_m    -0.09; C_n     0.04; C_o    -0.00; C_p    -0.39; C_q    -0.66; C_r     0.20; C_s    -0.11; C_t     0.10; 
@             C_u    -0.12; C_v    -0.11; C_w    -0.16; C_x    -0.16; N_a    -0.58; N_b     0.77; O_a    -0.65; O_b    -0.66; H_a     0.12; H_b     0.13; 
@    MULPOP    dipole moment & components:      6.5605;       -1.6337      6.3539      0.0000
 -----------------------------------------------------------------------------
  18  Screening settings (-IFTHRS, JTDIIS, DIFDEN, times)  -14   18    T  9.16D+01  9.22D+01
@ 18    -1182.70961001        1.10226D-05   -1.18D-10    8
      Virial theorem: -V/T =      2.002643
@    MULPOP   C_a    -0.19; C_b    -0.08; C_c    -0.11; C_d    -0.06; C_e    -0.11; C_f    -0.08; C_g    -0.12; C_h    -0.15; C_i    -0.20; C_j    -0.14; 
@             C_k    -0.14; C_l    -0.03; C_m    -0.09; C_n     0.04; C_o    -0.00; C_p    -0.39; C_q    -0.66; C_r     0.20; C_s    -0.11; C_t     0.10; 
@             C_u    -0.12; C_v    -0.11; C_w    -0.16; C_x    -0.16; N_a    -0.58; N_b     0.77; O_a    -0.65; O_b    -0.66; H_a     0.12; H_b     0.13; 
@    MULPOP    dipole moment & components:      6.5604;       -1.6337      6.3537      0.0000
 -----------------------------------------------------------------------------
  19  Screening settings (-IFTHRS, JTDIIS, DIFDEN, times)  -14   19    T  9.16D+01  9.21D+01
@ 19    -1182.70961001        5.47095D-06   -3.77D-11    8

@ *** DIIS converged in  19 iterations !
@     Converged SCF energy, gradient:  -1182.709610008287    5.47D-06
    - total time used in SIRFCK :              0.00 seconds


 *** SCF orbital energy analysis ***

 Only the 20 lowest virtual orbital energies printed in each symmetry.

 Number of electrons :  200
 Orbital occupations :  100

 Sym       Hartree-Fock orbital energies

1 A     -20.58775559   -20.58490022   -15.83806900   -15.59180981   -11.30184285
        -11.28991987   -11.28836937   -11.27873680   -11.27070697   -11.26485227
        -11.26027216   -11.26009994   -11.25653825   -11.25575699   -11.25338153
        -11.25303492   -11.25176965   -11.25064542   -11.25030075   -11.24834199
        -11.24755318   -11.24712242   -11.24469940   -11.24158402   -11.23800025
        -11.23370595   -11.22886398   -11.22638502    -1.57808625    -1.37597079
         -1.23667016    -1.14373529    -1.12907078    -1.11977523    -1.11107904
         -1.10048353    -1.08699613    -1.07073786    -1.05191597    -1.03069632
         -1.00723999    -0.98173569    -0.95476281    -0.93576429    -0.89003348
         -0.86084704    -0.83243503    -0.80773464    -0.79029031    -0.78462440
         -0.77608591    -0.77167779    -0.76473099    -0.76123346    -0.75139816
         -0.74930389    -0.73504373    -0.71661362    -0.71172019    -0.69588791
         -0.67999264    -0.67446295    -0.66848910    -0.65369736    -0.64939296
         -0.63258845    -0.62598868    -0.61342725    -0.60165110    -0.59438270
         -0.58199552    -0.56918705    -0.56676564    -0.55402206    -0.54727463
         -0.54285447    -0.53362855    -0.53001464    -0.52607192    -0.52435996
         -0.51982279    -0.51440437    -0.50916638    -0.50401463    -0.49968734
         -0.49710299    -0.48745429    -0.48061692    -0.47822681    -0.47635810
         -0.46207838    -0.44374491    -0.43906241    -0.42130253    -0.39504749
         -0.36508198    -0.33175495    -0.29586305    -0.25921638    -0.22499344
          0.00376614     0.01594350     0.02288194     0.02459464     0.02585714
          0.02870563     0.03008299     0.03377347     0.03665987     0.03711572
          0.04010529     0.04541765     0.04891027     0.05473175     0.05922141
          0.06523567     0.07115688     0.07121376     0.07658872     0.07799334

    E(LUMO) :     0.00376614 au (symmetry 1)
  - E(HOMO) :    -0.22499344 au (symmetry 1)
  ------------------------------------------
    gap     :     0.22875958 au

 --- Writing SIRIFC interface file

 CPU and wall time for SCF :    2919.799    2937.258


                       .-----------------------------------.
                       | --- Final results from SIRIUS --- |
                       `-----------------------------------'


@    Spin multiplicity:           1
@    Spatial symmetry:            1 ( irrep  A   in C1  )
@    Total charge of molecule:    0

@    Final HF energy:           -1182.709610008287                 
@    Nuclear repulsion:          1740.311733291155
@    Electronic energy:         -2923.021343299442

@    Final gradient norm:           0.000005470947

 
     Date and time (Linux)  : Wed Apr 30 01:21:22 2025
     Host name              : xm028                                   

File label for MO orbitals:  30Apr25   FOCKDIIS

 (Only coefficients > 0.0100 are printed.)

 Molecular orbitals for symmetry species 1  (A  )
 ------------------------------------------------

    Orbital        91       92       93       94       95       96       97
   8 C_a :2pz   -0.1214  -0.0928  -0.0007   0.2223   0.1119  -0.1319   0.2233
  17 C_a :2pz   -0.0019  -0.0019   0.0045   0.0059   0.0030  -0.0069   0.0133
  24 C_a :3d1-   0.0017  -0.0089   0.0008   0.0063  -0.0070  -0.0146   0.0048
  54 C_b :2pz   -0.0351  -0.1774   0.0113   0.1889  -0.0319  -0.2143   0.1248
  70 C_b :3d1-   0.0064  -0.0006   0.0005  -0.0099  -0.0114   0.0037  -0.0176
  75 C_b :3d1-  -0.0107   0.0070  -0.0001   0.0074   0.0072   0.0049  -0.0019
 100 C_c :2pz    0.1007  -0.2193   0.0230   0.0194  -0.2155  -0.1079  -0.1812
 106 C_c :2pz    0.0021   0.0006  -0.0005  -0.0051  -0.0060   0.0028  -0.0106
 109 C_c :2pz    0.0021  -0.0047  -0.0025  -0.0002  -0.0077  -0.0041  -0.0110
 116 C_c :3d1-   0.0067  -0.0038   0.0008  -0.0089  -0.0092   0.0085  -0.0151
 121 C_c :3d1-  -0.0095  -0.0038   0.0007   0.0133   0.0007  -0.0016  -0.0021
 146 C_d :2pz    0.1714  -0.1723   0.0226  -0.1069  -0.2076   0.0491  -0.2202
 155 C_d :2pz    0.0029  -0.0035   0.0016  -0.0019  -0.0069   0.0011  -0.0137
 162 C_d :3d1-  -0.0001   0.0087  -0.0007  -0.0062   0.0100   0.0123   0.0097
 167 C_d :3d1-  -0.0059  -0.0069   0.0005   0.0123  -0.0009  -0.0014   0.0022
 192 C_e :2pz    0.2257  -0.0292   0.0112  -0.2245  -0.0250   0.2277   0.0030
 201 C_e :2pz    0.0037   0.0001   0.0018  -0.0058   0.0003   0.0102   0.0006
 208 C_e :3d1-   0.0053   0.0063  -0.0005  -0.0066   0.0107   0.0075   0.0144
 213 C_e :3d1-   0.0070  -0.0128   0.0016   0.0034  -0.0073   0.0040  -0.0011
 238 C_f :2pz    0.2147   0.0798  -0.0007  -0.2023   0.1161   0.1764   0.1530
 254 C_f :3d1-  -0.0058   0.0053  -0.0008   0.0093   0.0073  -0.0139   0.0055
 259 C_f :3d1-   0.0119  -0.0113   0.0018   0.0005  -0.0071   0.0034  -0.0021
 284 C_g :2pz    0.1438   0.2046  -0.0176  -0.0491   0.2284  -0.0798   0.1810
 293 C_g :2pz    0.0025   0.0042  -0.0010  -0.0002   0.0070  -0.0043   0.0105
 300 C_g :3d1-  -0.0001   0.0076  -0.0009   0.0080   0.0051  -0.0145  -0.0027
 305 C_g :3d1-   0.0250  -0.0020   0.0008  -0.0066   0.0006   0.0055   0.0034
 330 C_h :2pz    0.0657   0.2271  -0.0234   0.0790   0.1701  -0.1959   0.0343
 346 C_h :3d1-  -0.0055  -0.0050   0.0003   0.0075  -0.0125  -0.0008  -0.0164
 351 C_h :3d1-   0.0274   0.0027   0.0003  -0.0058   0.0017   0.0059   0.0015
 376 C_i :2pz   -0.0622   0.1714  -0.0217   0.2194  -0.0479  -0.1687  -0.2235
 382 C_i :2pz    0.0012  -0.0007   0.0001   0.0036  -0.0070   0.0001  -0.0103
 385 C_i :2pz   -0.0010   0.0030  -0.0004   0.0053  -0.0021  -0.0067  -0.0132
 392 C_i :3d1-  -0.0048  -0.0005  -0.0001   0.0081  -0.0123   0.0042  -0.0110
 397 C_i :3d1-   0.0297   0.0167  -0.0010   0.0029   0.0042  -0.0013  -0.0010
 422 C_j :2pz   -0.1397   0.0814  -0.0134   0.2215  -0.1706  -0.0244  -0.1971
 431 C_j :2pz   -0.0023   0.0018  -0.0010   0.0055  -0.0050  -0.0014  -0.0108
 438 C_j :3d1-  -0.0004  -0.0082   0.0010  -0.0073  -0.0037   0.0149   0.0143
 443 C_j :3d1-   0.0285   0.0197  -0.0015   0.0069   0.0026  -0.0007   0.0028
 468 C_k :2pz   -0.2233  -0.0787   0.0040   0.1027  -0.2201   0.2108   0.0817
 484 C_k :3d1-  -0.0054  -0.0072   0.0008  -0.0053  -0.0019   0.0115   0.0159
 489 C_k :3d1-   0.0186   0.0216  -0.0022   0.0172  -0.0083   0.0041   0.0019
 514 C_l :2pz   -0.2431  -0.1672   0.0148  -0.0234  -0.1271   0.2166   0.1984
 523 C_l :2pz   -0.0038  -0.0030   0.0006  -0.0005  -0.0037   0.0082   0.0103
 530 C_l :3d1-   0.0050  -0.0009   0.0003  -0.0088   0.0131  -0.0100   0.0001
 535 C_l :3d1-   0.0156   0.0202  -0.0021   0.0182  -0.0100   0.0035  -0.0009
 560 C_m :2pz   -0.2282  -0.2393   0.0249  -0.1950   0.1022   0.0174   0.1340
 576 C_m :3d1-  -0.0017  -0.0043   0.0005  -0.0081   0.0113  -0.0114  -0.0067
 581 C_m :3d1-   0.0023   0.0094  -0.0010   0.0132  -0.0117   0.0091   0.0057
 606 C_n :2pz   -0.1775  -0.2185   0.0238  -0.2288   0.2000  -0.1325  -0.0341
 622 C_n :3d1-   0.0079   0.0086  -0.0009   0.0060  -0.0004  -0.0069  -0.0140
 627 C_n :3d1-   0.0000   0.0064  -0.0007   0.0113  -0.0123   0.0114   0.0071
 652 C_o :2pz   -0.0713  -0.1140   0.0132  -0.1583   0.1976  -0.2276  -0.2435
 658 C_o :2pz    0.0019   0.0016  -0.0001  -0.0002   0.0041  -0.0095  -0.0153
 661 C_o :2pz   -0.0007  -0.0018   0.0004  -0.0038   0.0066  -0.0107  -0.0162
 698 C_p :2pz    0.0243   0.0061  -0.0001  -0.0217   0.0558  -0.0939  -0.1325
 714 C_p :3d1-   0.0073   0.0106  -0.0012   0.0141  -0.0171   0.0194   0.0208
 719 C_p :3d1-  -0.0012   0.0014  -0.0002   0.0044  -0.0068   0.0091   0.0106
 744 C_q :2pz    0.1646  -0.1900   0.0310   0.2167   0.2342   0.2422  -0.2352
 750 C_q :2pz    0.0016  -0.0033  -0.0087   0.0046   0.0067   0.0096  -0.0119
 753 C_q :2pz    0.0038  -0.0062  -0.0149   0.0055   0.0074   0.0095  -0.0120
 760 C_q :3d1-   0.0092  -0.0102  -0.0037   0.0096   0.0087   0.0069  -0.0045
 765 C_q :3d1-   0.0073  -0.0112  -0.0267   0.0100   0.0115   0.0121  -0.0111
 767 C_q :3d1+  -0.0025   0.0006  -0.0159  -0.0010  -0.0001   0.0004  -0.0000
 790 C_r :2pz    0.1894  -0.1975   0.0219   0.1949   0.1763   0.1441  -0.1017
 796 C_r :2pz   -0.0056   0.0075   0.0289  -0.0026  -0.0007   0.0015  -0.0028
 799 C_r :2pz    0.0023  -0.0012   0.0228   0.0049   0.0056   0.0066  -0.0073
 806 C_r :3d1-  -0.0032   0.0057  -0.0012  -0.0092  -0.0131  -0.0167   0.0192
 836 C_s :2pz    0.1640  -0.1139   0.0219   0.0400  -0.0531  -0.1465   0.2185
 842 C_s :2pz    0.0013  -0.0007  -0.0135  -0.0030  -0.0057  -0.0087   0.0120
 845 C_s :2pz    0.0026  -0.0020  -0.0008   0.0006  -0.0019  -0.0060   0.0122
 852 C_s :3d1-   0.0012   0.0030  -0.0002  -0.0079  -0.0121  -0.0141   0.0131
 857 C_s :3d1-   0.0181  -0.0168   0.0023   0.0155   0.0111   0.0069  -0.0024
 882 C_t :2pz    0.0890  -0.0055   0.0121  -0.0863  -0.1662  -0.2095   0.2032
 891 C_t :2pz    0.0020  -0.0020  -0.0122  -0.0018  -0.0052  -0.0101   0.0150
 898 C_t :3d1-  -0.0076   0.0086  -0.0016  -0.0073  -0.0024   0.0056  -0.0147
 903 C_t :3d1-   0.0197  -0.0160   0.0032   0.0136   0.0088   0.0066  -0.0057
 928 C_u :2pz   -0.0577   0.1615  -0.0066  -0.2180  -0.1915  -0.0786  -0.0817
 934 C_u :2pz   -0.0025   0.0035  -0.0065  -0.0036  -0.0010   0.0039  -0.0100
 944 C_u :3d1-  -0.0065   0.0088  -0.0013  -0.0066   0.0006   0.0097  -0.0159
 949 C_u :3d1-   0.0203  -0.0107   0.0034   0.0050  -0.0002   0.0007  -0.0032
 974 C_v :2pz   -0.1396   0.2073  -0.0165  -0.1880  -0.0767   0.0757  -0.1915
 983 C_v :2pz   -0.0027   0.0052   0.0066  -0.0052  -0.0034   0.0029  -0.0130
 990 C_v :3d1-  -0.0012  -0.0037  -0.0006   0.0104   0.0144   0.0111   0.0009
 995 C_v :3d1-   0.0176  -0.0070   0.0005   0.0023  -0.0008   0.0009  -0.0002
1020 C_w :2pz   -0.2111   0.1706  -0.0230  -0.0156   0.1615   0.2239  -0.1066
1029 C_w :2pz   -0.0039   0.0029  -0.0053   0.0003   0.0065   0.0106  -0.0060
1036 C_w :3d1-  -0.0053  -0.0007  -0.0006   0.0094   0.0125   0.0051   0.0084
1066 C_x :2pz   -0.2013   0.0790  -0.0178   0.1105   0.2170   0.1420   0.0549
1082 C_x :3d1-   0.0064  -0.0096   0.0010   0.0064  -0.0049  -0.0155   0.0127
1112 N_a :2pz    0.1435   0.1670  -0.0182   0.1827  -0.1925   0.1985   0.2005
1118 N_a :2pz    0.0037   0.0056  -0.0006   0.0074  -0.0092   0.0114   0.0138
1121 N_a :2pz    0.0057   0.0078  -0.0009   0.0103  -0.0132   0.0167   0.0212
1158 N_b :2pz   -0.0223   0.0212   0.0048  -0.0165  -0.0103  -0.0022  -0.0066
1169 N_b :3d1-   0.0019  -0.0034  -0.0142   0.0018   0.0022   0.0024  -0.0024
1171 N_b :3d1+  -0.0013   0.0004  -0.0143  -0.0025  -0.0024  -0.0025   0.0024
1174 N_b :3d1-   0.0061  -0.0104  -0.0404   0.0061   0.0075   0.0082  -0.0083
1176 N_b :3d1+  -0.0042   0.0019  -0.0408  -0.0080  -0.0081  -0.0085   0.0085
1179 N_b :3d1-   0.0023  -0.0016   0.0139   0.0036   0.0035   0.0034  -0.0031
1204 O_a :2pz   -0.0667   0.1256   0.6304  -0.0525  -0.0679  -0.0737   0.0742
1210 O_a :2pz   -0.0038   0.0093   0.0611  -0.0022  -0.0041  -0.0055   0.0065
1213 O_a :2pz   -0.0025   0.0066   0.0435  -0.0020  -0.0038  -0.0055   0.0071
1220 O_a :3d1-  -0.0018   0.0032   0.0165  -0.0011  -0.0013  -0.0012   0.0009
1225 O_a :3d1-  -0.0014   0.0031   0.0202  -0.0005  -0.0008  -0.0009   0.0010
1250 O_b :2pz   -0.0411  -0.0038  -0.6484  -0.0834  -0.0773  -0.0763   0.0732
1256 O_b :2pz   -0.0029  -0.0016  -0.0620  -0.0063  -0.0055  -0.0054   0.0055
1259 O_b :2pz   -0.0010  -0.0022  -0.0465  -0.0044  -0.0047  -0.0057   0.0068
1268 O_b :3d1+   0.0011   0.0002   0.0165   0.0018   0.0014   0.0011  -0.0008
1273 O_b :3d1+   0.0012   0.0004   0.0198   0.0019   0.0013   0.0009  -0.0005
1715 H_s :2pz    0.0006  -0.0030  -0.0159   0.0028   0.0043   0.0053  -0.0054

    Orbital        98       99      100      101      102      103      104
   2 C_a :1s     0.0000  -0.0000   0.0000  -0.0000   0.0035  -0.0118   0.0041
   4 C_a :1s    -0.0000  -0.0000  -0.0000  -0.0000  -0.1635   0.5665  -0.3271
   5 C_a :1s     0.0000   0.0000   0.0000   0.0000  -1.1092  13.2611  -8.2698
   6 C_a :2px   -0.0000   0.0000  -0.0000   0.0000  -0.0028   0.0201  -0.0058
   8 C_a :2pz    0.0312   0.2178  -0.1880   0.1572   0.0000   0.0000   0.0000
  12 C_a :2px   -0.0000  -0.0000   0.0000  -0.0000   0.1291  -0.5076   0.4863
  13 C_a :2py    0.0000   0.0000   0.0000  -0.0000  -0.0109   0.2242  -0.1838
  14 C_a :2pz   -0.0025   0.0170  -0.0150   0.0148  -0.0000  -0.0000  -0.0000
  15 C_a :2px    0.0000   0.0000  -0.0000   0.0000   0.5547   1.7500  -1.2929
  16 C_a :2py    0.0000   0.0000  -0.0000   0.0000  -3.2205   1.5039   0.4343
  17 C_a :2pz    0.0002   0.0349  -0.0351   0.1010   0.0000   0.0000   0.0000
  23 C_a :3d2-   0.0000  -0.0000   0.0000   0.0000  -0.0126   0.0146  -0.0018
  24 C_a :3d1-  -0.0128   0.0181  -0.0080  -0.0241   0.0000   0.0000   0.0000
  25 C_a :3d0    0.0000   0.0000  -0.0000   0.0000   0.0060  -0.0135   0.0070
  27 C_a :3d2+  -0.0000   0.0000  -0.0000   0.0000  -0.0101   0.0072   0.0012
  28 C_a :3d2-   0.0000  -0.0000  -0.0000   0.0000  -0.2078   0.1309  -0.1747
  29 C_a :3d1-  -0.0011   0.0064  -0.0038  -0.0282   0.0000   0.0000   0.0000
  30 C_a :3d0   -0.0000  -0.0000  -0.0000   0.0000   0.0380  -0.2009   0.1156
  32 C_a :3d2+  -0.0000  -0.0000  -0.0000   0.0000  -0.2017  -0.1167   0.0181
  40 C_a :4f3-  -0.0000   0.0000  -0.0000   0.0000   0.0027  -0.0288   0.0220
  46 C_a :4f3+  -0.0000   0.0000  -0.0000   0.0000   0.0084  -0.0223   0.0122
  48 C_b :1s     0.0000   0.0000   0.0000  -0.0000   0.0017   0.0164  -0.0124
  50 C_b :1s    -0.0000   0.0000  -0.0000   0.0000  -0.1970  -0.7290   0.6513
  51 C_b :1s    -0.0000   0.0000   0.0000  -0.0000  -0.3082 -13.1126   8.9794
  52 C_b :2px   -0.0000  -0.0000  -0.0000  -0.0000   0.0024   0.0296  -0.0240
  54 C_b :2pz   -0.1217   0.2212  -0.1029  -0.2351  -0.0000  -0.0000  -0.0000
  55 C_b :2px   -0.0000   0.0000  -0.0000   0.0000  -0.0055  -0.0074   0.0129
  58 C_b :2px    0.0000  -0.0000   0.0000  -0.0000   0.0580  -0.3099   0.1166
  59 C_b :2py   -0.0000   0.0000  -0.0000   0.0000  -0.0899   0.2806  -0.1840
  60 C_b :2pz   -0.0015   0.0146  -0.0115  -0.0230   0.0000   0.0000   0.0000
  61 C_b :2px   -0.0000  -0.0000  -0.0000  -0.0000   1.0040   1.4887  -2.3954
  62 C_b :2py    0.0000   0.0000   0.0000  -0.0000  -2.8932   2.4853   1.9035
  63 C_b :2pz   -0.0105   0.0296  -0.0273  -0.1397  -0.0000  -0.0000  -0.0000
  69 C_b :3d2-  -0.0000   0.0000  -0.0000   0.0000  -0.0058  -0.0119   0.0155
  70 C_b :3d1-  -0.0071  -0.0173   0.0182  -0.0157   0.0000   0.0000   0.0000
  71 C_b :3d0   -0.0000  -0.0000  -0.0000   0.0000   0.0027   0.0126  -0.0090
  73 C_b :3d2+  -0.0000  -0.0000  -0.0000   0.0000  -0.0150  -0.0091   0.0134
  74 C_b :3d2-   0.0000  -0.0000  -0.0000   0.0000  -0.1248  -0.2532   0.1629
  75 C_b :3d1-  -0.0002  -0.0063   0.0070  -0.0189  -0.0000  -0.0000  -0.0000
  76 C_b :3d0   -0.0000  -0.0000  -0.0000   0.0000   0.0126   0.1720  -0.0903
  78 C_b :3d2+  -0.0000  -0.0000  -0.0000   0.0000  -0.0140  -0.1509   0.1385
  86 C_b :4f3-  -0.0000   0.0000   0.0000  -0.0000   0.0035  -0.0292   0.0151
  92 C_b :4f3+   0.0000   0.0000   0.0000  -0.0000  -0.0059  -0.0220   0.0183
  94 C_c :1s    -0.0000  -0.0000  -0.0000   0.0000   0.0005  -0.0105   0.0026
  96 C_c :1s     0.0000  -0.0000   0.0000  -0.0000  -0.0124   0.8257   0.1919
  97 C_c :1s     0.0000   0.0000   0.0000   0.0000  -0.2927  11.8875  -7.1015
  98 C_c :2px    0.0000  -0.0000  -0.0000  -0.0000  -0.0024   0.0176  -0.0030
 100 C_c :2pz   -0.1642  -0.1534   0.2175  -0.1314   0.0000   0.0000   0.0000
 104 C_c :2px    0.0000  -0.0000   0.0000  -0.0000   0.0373  -0.4677   0.4042
 105 C_c :2py   -0.0000  -0.0000   0.0000   0.0000  -0.1527   0.3047  -0.0083
 106 C_c :2pz   -0.0052  -0.0138   0.0180  -0.0133  -0.0000  -0.0000  -0.0000
 107 C_c :2px    0.0000  -0.0000   0.0000   0.0000   0.9886   1.2797  -1.9317
 108 C_c :2py    0.0000   0.0000   0.0000   0.0000  -3.4864   1.4406   2.2040
 109 C_c :2pz   -0.0124  -0.0270   0.0420  -0.0832   0.0000   0.0000   0.0000
 115 C_c :3d2-   0.0000   0.0000   0.0000  -0.0000  -0.0043   0.0114  -0.0007
 116 C_c :3d1-   0.0030  -0.0187   0.0109   0.0222   0.0000   0.0000   0.0000
 117 C_c :3d0    0.0000  -0.0000   0.0000  -0.0000   0.0003  -0.0136   0.0037
 120 C_c :3d2-   0.0000  -0.0000  -0.0000  -0.0000   0.0159   0.2816  -0.0014
 121 C_c :3d1-  -0.0034  -0.0046   0.0054   0.0190   0.0000   0.0000   0.0000
 122 C_c :3d0    0.0000  -0.0000   0.0000  -0.0000   0.0100  -0.1621   0.1306
 124 C_c :3d2+  -0.0000   0.0000  -0.0000  -0.0000   0.1925  -0.0173   0.1581
 132 C_c :4f3-   0.0000  -0.0000   0.0000  -0.0000   0.0014  -0.0268   0.0169
 138 C_c :4f3+   0.0000  -0.0000   0.0000  -0.0000  -0.0029  -0.0216   0.0101
 140 C_d :1s     0.0000   0.0000   0.0000  -0.0000   0.0026   0.0138  -0.0088
 142 C_d :1s     0.0000   0.0000   0.0000  -0.0000   0.0957  -0.7618   0.3884
 143 C_d :1s    -0.0000  -0.0000  -0.0000  -0.0000  -0.4971 -12.1959   5.0862
 144 C_d :2px   -0.0000  -0.0000  -0.0000  -0.0000   0.0016   0.0275  -0.0155
 146 C_d :2pz   -0.0128  -0.2169   0.1366   0.2155  -0.0000  -0.0000  -0.0000
 147 C_d :2px   -0.0000  -0.0000   0.0000  -0.0000  -0.0047  -0.0069   0.0128
 150 C_d :2px   -0.0000  -0.0000  -0.0000   0.0000  -0.0175  -0.2222   0.0829
 151 C_d :2py    0.0000  -0.0000   0.0000  -0.0000  -0.1494   0.3682   0.0407
 152 C_d :2pz   -0.0054  -0.0123   0.0140   0.0243   0.0000   0.0000   0.0000
 153 C_d :2px   -0.0000   0.0000  -0.0000   0.0000   0.7780   1.6731  -1.4121
 154 C_d :2py    0.0000   0.0000   0.0000   0.0000  -3.5198   1.1886   0.8456
 155 C_d :2pz   -0.0020  -0.0252   0.0327   0.1353  -0.0000  -0.0000  -0.0000
 161 C_d :3d2-   0.0000  -0.0000   0.0000  -0.0000  -0.0009  -0.0124   0.0084
 162 C_d :3d1-   0.0164   0.0106  -0.0206   0.0128   0.0000   0.0000   0.0000
 163 C_d :3d0   -0.0000  -0.0000  -0.0000  -0.0000   0.0042   0.0114  -0.0056
 165 C_d :3d2+   0.0000   0.0000   0.0000  -0.0000  -0.0003  -0.0074   0.0123
 166 C_d :3d2-   0.0000   0.0000  -0.0000  -0.0000   0.1574  -0.1833   0.0789
 168 C_d :3d0    0.0000   0.0000   0.0000  -0.0000   0.0587   0.1569  -0.0436
 170 C_d :3d2+   0.0000   0.0000   0.0000  -0.0000   0.0731   0.0221   0.3433
 178 C_d :4f3-   0.0000  -0.0000   0.0000   0.0000  -0.0016  -0.0257   0.0045
 184 C_d :4f3+   0.0000   0.0000   0.0000  -0.0000  -0.0055  -0.0200   0.0155
 188 C_e :1s     0.0000  -0.0000   0.0000   0.0000   0.0311   0.5419   0.1632
 189 C_e :1s     0.0000   0.0000   0.0000   0.0000  -1.8078  11.8701  -0.8666
 190 C_e :2px    0.0000   0.0000  -0.0000  -0.0000  -0.0021   0.0152   0.0007
 192 C_e :2pz    0.2300   0.0599  -0.2407   0.1046   0.0000   0.0000   0.0000
 194 C_e :2py    0.0000   0.0000   0.0000  -0.0000  -0.0024   0.0004   0.0129
 196 C_e :2px    0.0000  -0.0000   0.0000   0.0000   0.1649  -0.4778   0.1424
 197 C_e :2py    0.0000   0.0000   0.0000  -0.0000   0.0072   0.2334   0.0783
 198 C_e :2pz    0.0111   0.0080  -0.0203   0.0106  -0.0000  -0.0000  -0.0000
 199 C_e :2px    0.0000   0.0000  -0.0000   0.0000   0.5226   1.3973  -1.0486
 200 C_e :2py   -0.0000  -0.0000  -0.0000  -0.0000  -3.6443   1.7668   4.1338
 201 C_e :2pz    0.0191   0.0140  -0.0478   0.0622   0.0000   0.0000   0.0000
 207 C_e :3d2-   0.0000   0.0000   0.0000   0.0000  -0.0154   0.0117   0.0055
 208 C_e :3d1-   0.0081   0.0163  -0.0138  -0.0200  -0.0000   0.0000  -0.0000
 209 C_e :3d0    0.0000   0.0000  -0.0000   0.0000   0.0045  -0.0129  -0.0032
 212 C_e :3d2-   0.0000   0.0000  -0.0000   0.0000  -0.1551   0.1247  -0.1802
 213 C_e :3d1-   0.0029   0.0038  -0.0059  -0.0198   0.0000   0.0000   0.0000
 214 C_e :3d0    0.0000   0.0000   0.0000   0.0000   0.0630  -0.1856   0.0096
 216 C_e :3d2+   0.0000   0.0000   0.0000  -0.0000  -0.0625  -0.0437   0.1049
 224 C_e :4f3-   0.0000   0.0000  -0.0000   0.0000   0.0021  -0.0285  -0.0009
 230 C_e :4f3+   0.0000   0.0000  -0.0000   0.0000   0.0089  -0.0209  -0.0009
 232 C_f :1s     0.0000   0.0000  -0.0000   0.0000   0.0003   0.0132  -0.0006
 234 C_f :1s    -0.0000   0.0000  -0.0000  -0.0000  -0.2627  -0.7238   0.1388
 235 C_f :1s    -0.0000  -0.0000  -0.0000  -0.0000  -0.0459 -11.3810  -0.8584
 236 C_f :2px    0.0000  -0.0000   0.0000  -0.0000   0.0007   0.0245  -0.0050
 238 C_f :2pz    0.1457   0.1744  -0.1691  -0.1909  -0.0000  -0.0000   0.0000
 242 C_f :2px   -0.0000   0.0000  -0.0000  -0.0000   0.0844  -0.3336  -0.2641
 243 C_f :2py    0.0000   0.0000  -0.0000   0.0000  -0.1414   0.2810   0.1543
 244 C_f :2pz    0.0103   0.0077  -0.0158  -0.0215   0.0000   0.0000  -0.0000
 245 C_f :2px   -0.0000  -0.0000   0.0000  -0.0000   1.5981   1.7354  -0.3268
 246 C_f :2py    0.0000   0.0000   0.0000   0.0000  -4.8444   0.9685   1.8646
 247 C_f :2pz    0.0132   0.0168  -0.0372  -0.1238  -0.0000  -0.0000   0.0000
 253 C_f :3d2-  -0.0000   0.0000  -0.0000   0.0000  -0.0079  -0.0135  -0.0018
 254 C_f :3d1-  -0.0188  -0.0018   0.0224  -0.0101   0.0000   0.0000   0.0000
 255 C_f :3d0   -0.0000  -0.0000   0.0000  -0.0000   0.0024   0.0119   0.0031
 257 C_f :3d2+   0.0000  -0.0000   0.0000  -0.0000  -0.0150  -0.0080   0.0119
 258 C_f :3d2-   0.0000   0.0000  -0.0000  -0.0000  -0.1329  -0.2917  -0.2562
 260 C_f :3d0    0.0000  -0.0000   0.0000   0.0000  -0.0030   0.1368   0.0353
 262 C_f :3d2+   0.0000  -0.0000   0.0000   0.0000  -0.0167  -0.2345  -0.0329
 270 C_f :4f3-  -0.0000  -0.0000  -0.0000  -0.0000   0.0044  -0.0236  -0.0096
 276 C_f :4f3+   0.0000   0.0000  -0.0000   0.0000  -0.0031  -0.0231  -0.0023
 280 C_g :1s    -0.0000  -0.0000  -0.0000  -0.0000  -0.1937   0.2972   0.0542
 281 C_g :1s    -0.0000   0.0000  -0.0000  -0.0000   0.7769   9.7531   1.6661
 282 C_g :2px   -0.0000   0.0000  -0.0000  -0.0000  -0.0010   0.0129   0.0043
 284 C_g :2pz   -0.1952   0.0473   0.2542  -0.0783   0.0000   0.0000   0.0000
 288 C_g :2px   -0.0000  -0.0000  -0.0000  -0.0000   0.0603  -0.4695  -0.1845
 289 C_g :2py   -0.0000  -0.0000  -0.0000   0.0000  -0.2113   0.2746   0.3305
 290 C_g :2pz   -0.0126  -0.0008   0.0221  -0.0066  -0.0000  -0.0000  -0.0000
 291 C_g :2px   -0.0000  -0.0000  -0.0000  -0.0000   1.4062   1.2174  -0.5794
 292 C_g :2py    0.0000   0.0000  -0.0000  -0.0000  -4.0823   1.0486   3.4402
 293 C_g :2pz   -0.0168   0.0019   0.0521  -0.0413   0.0000   0.0000   0.0000
 300 C_g :3d1-  -0.0160  -0.0108   0.0164   0.0172   0.0000  -0.0000   0.0000
 304 C_g :3d2-  -0.0000  -0.0000  -0.0000  -0.0000  -0.0821   0.1988   0.0528
 305 C_g :3d1-  -0.0043  -0.0005   0.0081   0.0152  -0.0000   0.0000  -0.0000
 306 C_g :3d0   -0.0000  -0.0000   0.0000  -0.0000  -0.0333  -0.1520  -0.0137
 308 C_g :3d2+  -0.0000  -0.0000   0.0000  -0.0000   0.1018  -0.1322  -0.0303
 316 C_g :4f3-  -0.0000  -0.0000  -0.0000  -0.0000   0.0020  -0.0219  -0.0093
 322 C_g :4f3+  -0.0000  -0.0000   0.0000  -0.0000  -0.0037  -0.0144   0.0050
 326 C_h :1s     0.0000   0.0000   0.0000   0.0000   0.0387  -0.5719   0.0828
[...]
1813 H_w :3d2-   0.0101   0.0034  -0.0021  -0.0039   0.0000  -0.0055
1817 H_w :3d2+   0.0152   0.0090  -0.0014  -0.0120   0.0000  -0.0028
1818 H_x :1s     0.0334   0.0057  -0.0010  -0.0137   0.0000  -0.0081
1819 H_x :1s    -0.0900   0.0906  -0.0857   0.0124   0.0000  -0.0181
1820 H_x :1s    -0.7587   1.0883  -1.0310   0.1221   0.0000  -0.1890
1821 H_x :1s    -0.5983  -1.7482   1.7659   1.5568   0.0000   0.8288
1825 H_x :2px   -0.0019  -0.0321   0.0229   0.0040   0.0000   0.0135
1826 H_x :2py    0.0003  -0.0160   0.0036   0.0038   0.0000   0.0035
1828 H_x :2px    0.1297  -0.2260   0.1677  -0.0439  -0.0000   0.0292
1829 H_x :2py   -0.0442  -0.0789   0.0709   0.0257  -0.0000   0.0612
1836 H_x :3d2-   0.0114   0.0066  -0.0002  -0.0055  -0.0000  -0.0050
1838 H_x :3d0   -0.0119  -0.0035  -0.0043   0.0017   0.0000   0.0028
1840 H_x :3d2+   0.0201   0.0014   0.0003  -0.0077  -0.0000  -0.0029
1841 H_y :1s     0.0319   0.0025  -0.0071  -0.0082   0.0000  -0.0085
1842 H_y :1s     0.0011   0.0116   0.0501   0.0756   0.0000  -0.0401
1843 H_y :1s     0.4326   0.3154   0.6895   0.7700   0.0000  -0.5376
1844 H_y :1s    -1.7492   0.0081  -0.3655  -0.6101  -0.0000   1.5029
1848 H_y :2px    0.0206   0.0155   0.0080   0.0176   0.0000  -0.0199
1849 H_y :2py    0.0071   0.0024   0.0007   0.0111   0.0000  -0.0059
1851 H_y :2px    0.0651   0.1381   0.1380   0.1990   0.0000  -0.1153
1852 H_y :2py    0.0441  -0.1189  -0.0666  -0.0595  -0.0000   0.0032
1859 H_y :3d2-   0.0104  -0.0003  -0.0062   0.0004   0.0000  -0.0041
1863 H_y :3d2+   0.0158   0.0057  -0.0022  -0.0040   0.0000  -0.0046
1864 H_z :1s     0.0331  -0.0039  -0.0058  -0.0005  -0.0000  -0.0085
1865 H_z :1s    -0.0763   0.0849  -0.0260   0.0229  -0.0000   0.0413
1866 H_z :1s    -0.1316   1.0253  -0.5271   0.0919  -0.0000   0.1259
1867 H_z :1s    -0.7477  -0.3630   1.1473  -0.1733  -0.0000  -0.5784
1871 H_z :2px   -0.0049  -0.0209   0.0147  -0.0137   0.0000   0.0003
1872 H_z :2py   -0.0006  -0.0133   0.0038  -0.0029  -0.0000   0.0021
1874 H_z :2px    0.0238  -0.1944   0.0926  -0.0724   0.0000   0.0001
1875 H_z :2py   -0.0633  -0.0822   0.0760   0.0320   0.0000   0.0180
1882 H_z :3d2-   0.0104   0.0042  -0.0043   0.0006  -0.0000  -0.0065
1884 H_z :3d0   -0.0106   0.0008   0.0012  -0.0047  -0.0000   0.0073
1886 H_z :3d2+   0.0186  -0.0056  -0.0035   0.0038  -0.0000  -0.0051

  Total CPU  time used in SIRIUS : 55 minutes 12 seconds
  Total wall time used in SIRIUS : 55 minutes 31 seconds

 
     Date and time (Linux)  : Wed Apr 30 01:21:25 2025
     Host name              : xm028                                   

 NOTE:    1 warnings have been issued.
 Check output, result, and error files for "WARNING".


                     .---------------------------------------.
                     | End of Wave Function Section (SIRIUS) |
                     `---------------------------------------'



        *****************************************************************
        ******** Output from **PROPE input processing for ABACUS ********
        *****************************************************************



 The following molecular properties will be calculated in this run:
 ------------------------------------------------------------------

 Default print level:        0

      Electronic excitation energies 
      Direct calculation - no two-electron integrals written or read.
      Two-electron integrals will be calculated in parallel
      Natural orbital connection is used
      for perturbation dependent basis sets.


 Changes of defaults for .EXCITA:
 --------------------------------

 Number of excitation energies:    4
 Print level          :    0
 Integral print level :    0
 Convergence threshold: 1.00E-04
 Maximum iterations   :   60

 Center of mass dipole origin  :    0.093454   -0.289436    0.000000

 Center of mass gauge origin   :    0.093454   -0.289436    0.000000


                 .------------------------------------------------.
                 | Starting in Static Property Section (ABACUS) - |
                 `------------------------------------------------'


 
     Date and time (Linux)  : Wed Apr 30 01:21:25 2025
     Host name              : xm028                                   


                  **********************************************
                  *** ABACUS - Excitation energies (.EXCITA) ***
                  **********************************************

  Time used in EXCITA     is       2 hours 11 minutes 42 seconds


   ***************************************************************************
   ************************ FINAL RESULTS from ABACUS ************************
   ***************************************************************************


 
     Date and time (Linux)  : Wed Apr 30 03:58:54 2025
     Host name              : xm028                                   


                             Molecular geometry (au)
                             -----------------------

 C_a        0.6766598998           -6.1193394885            0.0000000000
 C_b        1.2602432397           -3.5842870091            0.0000000000
 C_c       -0.5931188899           -1.5990673496            0.0000000000
 C_d        0.0000000000            0.9346679898            0.0000000000
 C_e       -1.8444993095            2.9274049793            0.0000000000
 C_f       -1.2413251897            5.4590691787            0.0000000000
 C_g       -3.0760035892            7.4609429882            0.0000000000
 C_h       -2.4602835794            9.9893681975            0.0000000000
 C_i       -4.2822970289           12.0037368771            0.0000000000
 C_j       -3.6491915391           14.5269880164            0.0000000000
 C_k       -5.4529634687           16.5598949059            0.0000000000
 C_l       -4.7932827588           19.0743663853            0.0000000000
 C_m       -6.5669154484           21.1376109348            0.0000000000
 C_n       -5.8587367986           23.6348594442            0.0000000000
 C_o       -7.5716525881           25.7524487437            0.0000000000
 C_p       -6.7362708083           28.2022859131            0.0000000000
 C_q        6.1358972685          -24.0418025241            0.0000000000
 C_r        6.6236733684          -21.5321536247            0.0000000000
 C_s        4.6658868689          -19.6243106952            0.0000000000
 C_t        5.1917485187          -17.0887990158            0.0000000000
 C_u        3.2905309692          -15.1371768063            0.0000000000
 C_v        3.8450654291          -12.6008695469            0.0000000000
 C_w        1.9677888195          -10.6329314374            0.0000000000
 C_x        2.5399071894           -8.0970625980            0.0000000000
 N_a       -8.2192031580           30.3216232126            0.0000000000
 N_b        8.1812215480          -25.8903174936            0.0000000000
 O_a        7.5130068282          -28.1302457831            0.0000000000
 O_b       10.3843511974          -25.1325089738            0.0000000000
 H_a       -1.3248170697           -6.6793617084            0.0000000000
 H_b        3.2636458392           -3.0288209093            0.0000000000
 H_c       -2.5971394294           -2.1504232895            0.0000000000
 H_d        2.0057704295            1.4818495296            0.0000000000
 H_e       -3.8508725591            2.3844053994            0.0000000000
 H_f        0.7670039298            5.9972669585            0.0000000000
 H_g       -5.0850243488            6.9277378683            0.0000000000
 H_h       -0.4487211399           10.5160991174            0.0000000000
 H_i       -6.2947174085           11.4835878672            0.0000000000
 H_j       -1.6330956496           15.0373539063            0.0000000000
 H_k       -7.4701402882           16.0589587461            0.0000000000
 H_l       -2.7700342493           19.5581324952            0.0000000000
 H_m       -8.5915188879           20.6696637249            0.0000000000
 H_n       -3.8229858691           24.0662895941            0.0000000000
 H_o       -9.6125624776           25.3722641938            0.0000000000
 H_p       -4.6980122188           28.5827784930            0.0000000000
 H_q      -10.1243097575           30.1840341426            0.0000000000
 H_r       -7.4458062782           32.0625806521            0.0000000000
 H_s        4.2686985690          -24.9188508739            0.0000000000
 H_t        8.6085566579          -20.9362171549            0.0000000000
 H_u        2.6856655393          -20.2469886850            0.0000000000
 H_v        7.1816905982          -16.4888279759            0.0000000000
 H_w        1.2985366497          -15.7274251961            0.0000000000
 H_x        5.8416272186          -12.0217554170            0.0000000000
 H_y       -0.0301600300          -11.2044715472            0.0000000000
 H_z        4.5405696789           -7.5320344881            0.0000000000





                        Molecular wave function and energy
                        ----------------------------------

     Spatial symmetry   1 ( A   )
     Spin multiplicity  1
     2 * M_S            0
     State number       1
     Total charge       0

     Total energy      -1182.7096100083 au (Hartrees)
                        -32183.16560675 eV
                          -3105203.6023 kJ/mol
                           -742161.4728 kcal/mol


                   Scalar Breit-Pauli relativistic corrections
                   -------------------------------------------

     Darwin correction:                          2.0902748800 au
     Mass-velocity correction:                  -2.6020170857 au

     Total relativistic correction:             -0.5117422057 au ( 0.0433%)
     Non-relativistic + relativistic energy: -1183.2213522140 au



      (Note that these corrections are NOT included in the results below.)


                                  Dipole moment
                                  -------------

                 au               Debye          C m (/(10**-30)
              6.678674          16.975496          56.624160


                             Dipole moment components
                             ------------------------

                 au               Debye          C m (/(10**-30)

      x     -2.01886587        -5.13144486       -17.11665763
      y      6.36622908        16.18133926        53.97513788
      z      0.00000000         0.00000000         0.00000000


   Units:   1 a.u. =   2.54175 Debye 
            1 a.u. =   8.47835 (10**-30) C m (SI)




@               Singlet electronic excitation energies
                --------------------------------------

               ========================================
                 Sym.   Mode   Frequency    Frequency
                ex. st.  No.      (au)         (eV)
               ----------------------------------------
                   1      1     0.096101     2.615035
                   1      2     0.156556     4.260113
                   1      3     0.159672     4.344893
                   1      4     0.161982     4.407760
               ========================================

  Max    interatomic separation is   32.8215 Angstrom (   62.0237 Bohr)
  between atoms   46 and   27, "H_r   " and "O_a   ".

  Min HX interatomic separation is    1.0081 Angstrom (    1.9050 Bohr)

  Min YX interatomic separation is    1.2329 Angstrom (    2.3298 Bohr)


  Bond distances (Angstrom):
  --------------------------

                  atom 1     atom 2       distance
                  ------     ------       --------
  bond distance:  C_b        C_a          1.376579
  bond distance:  C_c        C_b          1.437186
  bond distance:  C_d        C_c          1.377041
  bond distance:  C_e        C_d          1.436906
  bond distance:  C_f        C_e          1.377198
  bond distance:  C_g        C_f          1.436942
  bond distance:  C_h        C_g          1.377086
  bond distance:  C_i        C_h          1.437319
  bond distance:  C_j        C_i          1.376636
  bond distance:  C_k        C_j          1.438185
  bond distance:  C_l        C_k          1.375631
  bond distance:  C_m        C_l          1.439785
  bond distance:  C_n        C_m          1.373596
  bond distance:  C_o        C_n          1.441293
  bond distance:  C_p        C_o          1.369697
  bond distance:  C_r        C_q          1.352901
  bond distance:  C_s        C_r          1.446580
  bond distance:  C_t        C_s          1.370288
  bond distance:  C_u        C_t          1.441797
  bond distance:  C_v        C_u          1.373861
  bond distance:  C_w        C_v          1.439221
  bond distance:  C_x        C_a          1.437871
  bond distance:  C_x        C_w          1.375652
  bond distance:  N_a        C_p          1.368788
  bond distance:  N_b        C_q          1.458875
  bond distance:  O_a        N_b          1.236939
  bond distance:  O_b        N_b          1.232887
  bond distance:  H_a        C_a          1.099815
  bond distance:  H_b        C_b          1.100150
  bond distance:  H_c        C_c          1.099886
  bond distance:  H_d        C_d          1.100195
  bond distance:  H_e        C_e          1.099923
  bond distance:  H_f        C_f          1.100261
  bond distance:  H_g        C_g          1.099934
  bond distance:  H_h        C_h          1.100361
  bond distance:  H_i        C_i          1.099924
  bond distance:  H_j        C_j          1.100525
  bond distance:  H_k        C_k          1.099866
  bond distance:  H_l        C_l          1.100837
  bond distance:  H_m        C_m          1.099619
  bond distance:  H_n        C_n          1.101199
  bond distance:  H_o        C_o          1.098582
  bond distance:  H_p        C_p          1.097232
  bond distance:  H_q        N_a          1.010765
  bond distance:  H_r        N_a          1.008090
  bond distance:  H_s        C_q          1.091651
  bond distance:  H_t        C_r          1.096675
  bond distance:  H_u        C_s          1.098474
  bond distance:  H_v        C_t          1.099853
  bond distance:  H_w        C_u          1.099420
  bond distance:  H_x        C_v          1.100082
  bond distance:  H_y        C_w          1.099678
  bond distance:  H_z        C_x          1.100117


  Bond angles (degrees):
  ----------------------

                  atom 1     atom 2     atom 3         angle
                  ------     ------     ------         -----
  bond angle:     C_b        C_a        C_x          123.743
  bond angle:     C_b        C_a        H_a          118.596
  bond angle:     C_x        C_a        H_a          117.661
  bond angle:     C_a        C_b        C_c          124.003
  bond angle:     C_a        C_b        H_b          118.461
  bond angle:     C_c        C_b        H_b          117.536
  bond angle:     C_b        C_c        C_d          123.792
  bond angle:     C_b        C_c        H_c          117.650
  bond angle:     C_d        C_c        H_c          118.558
  bond angle:     C_c        C_d        C_e          124.037
  bond angle:     C_c        C_d        H_d          118.434
  bond angle:     C_e        C_d        H_d          117.528
  bond angle:     C_d        C_e        C_f          123.811
  bond angle:     C_d        C_e        H_e          117.644
  bond angle:     C_f        C_e        H_e          118.545
  bond angle:     C_e        C_f        C_g          124.094
  bond angle:     C_e        C_f        H_f          118.403
  bond angle:     C_g        C_f        H_f          117.503
  bond angle:     C_f        C_g        C_h          123.809
  bond angle:     C_f        C_g        H_g          117.641
  bond angle:     C_h        C_g        H_g          118.550
  bond angle:     C_g        C_h        C_i          124.184
  bond angle:     C_g        C_h        H_h          118.360
  bond angle:     C_i        C_h        H_h          117.456
  bond angle:     C_h        C_i        C_j          123.785
  bond angle:     C_h        C_i        H_i          117.638
  bond angle:     C_j        C_i        H_i          118.577
  bond angle:     C_i        C_j        C_k          124.333
  bond angle:     C_i        C_j        H_j          118.291
  bond angle:     C_k        C_j        H_j          117.376
  bond angle:     C_j        C_k        C_l          123.717
  bond angle:     C_j        C_k        H_k          117.636
  bond angle:     C_l        C_k        H_k          118.647
  bond angle:     C_k        C_l        C_m          124.616
  bond angle:     C_k        C_l        H_l          118.148
  bond angle:     C_m        C_l        H_l          117.236
  bond angle:     C_l        C_m        C_n          123.484
  bond angle:     C_l        C_m        H_m          117.669
  bond angle:     C_n        C_m        H_m          118.847
  bond angle:     C_m        C_n        C_o          125.198
  bond angle:     C_m        C_n        H_n          117.798
  bond angle:     C_o        C_n        H_n          117.004
  bond angle:     C_n        C_o        C_p          122.202
  bond angle:     C_n        C_o        H_o          118.417
  bond angle:     C_p        C_o        H_o          119.381
  bond angle:     C_o        C_p        N_a          126.190
  bond angle:     C_o        C_p        H_p          119.403
  bond angle:     N_a        C_p        H_p          114.407
  bond angle:     C_r        C_q        N_b          121.108
  bond angle:     C_r        C_q        H_s          126.159
  bond angle:     N_b        C_q        H_s          112.733
  bond angle:     C_q        C_r        C_s          123.261
  bond angle:     C_q        C_r        H_t          117.711
  bond angle:     C_s        C_r        H_t          119.028
  bond angle:     C_r        C_s        C_t          122.543
  bond angle:     C_r        C_s        H_u          118.285
  bond angle:     C_t        C_s        H_u          119.173
  bond angle:     C_s        C_t        C_u          124.033
  bond angle:     C_s        C_t        H_v          118.495
  bond angle:     C_u        C_t        H_v          117.472
  bond angle:     C_t        C_u        C_v          123.417
  bond angle:     C_t        C_u        H_w          117.745
  bond angle:     C_v        C_u        H_w          118.838
  bond angle:     C_u        C_v        C_w          124.018
  bond angle:     C_u        C_v        H_x          118.508
  bond angle:     C_w        C_v        H_x          117.474
  bond angle:     C_v        C_w        C_x          123.637
  bond angle:     C_v        C_w        H_y          117.685
  bond angle:     C_x        C_w        H_y          118.678
  bond angle:     C_a        C_x        C_w          123.993
  bond angle:     C_a        C_x        H_z          117.522
  bond angle:     C_w        C_x        H_z          118.484
  bond angle:     C_p        N_a        H_q          120.850
  bond angle:     C_p        N_a        H_r          121.066
  bond angle:     H_q        N_a        H_r          118.083
  bond angle:     C_q        N_b        O_a          115.496
  bond angle:     C_q        N_b        O_b          118.912
  bond angle:     O_a        N_b        O_b          125.593




 CPU time statistics for ABACUS
 ------------------------------

 MAGINT     00:24:52      16 %
 EXCITA     02:11:42      84 %

 TOTAL      02:36:34     100 %


  Total CPU  time used in ABACUS:   2 hours 36 minutes 34 seconds
  Total wall time used in ABACUS:   2 hours 37 minutes 29 seconds


                   .-------------------------------------------.
                   | End of Static Property Section (ABACUS) - |
                   `-------------------------------------------'

  Total CPU  time used in DALTON:   3 hours 32 minutes  9 seconds
  Total wall time used in DALTON:   3 hours 33 minutes 23 seconds

 
     Date and time (Linux)  : Wed Apr 30 03:58:54 2025
     Host name              : xm028                                   
