

     ************************************************************************
     *************** Dalton - An Electronic Structure Program ***************
     ************************************************************************

    This is output from DALTON release Dalton2020.0 (2020)
         ( Web site: http://daltonprogram.org )

   ----------------------------------------------------------------------------

    NOTE:
     
    Dalton is an experimental code for the evaluation of molecular
    properties using (MC)SCF, DFT, CI, and CC wave functions.
    The authors accept no responsibility for the performance of
    the code or for the correctness of the results.
     
    The code (in whole or part) is provided under a licence and
    is not to be reproduced for further distribution without
    the written permission of the authors or their representatives.
     
    See the home page "http://daltonprogram.org" for further information.
     
    If results obtained with this code are published,
    the appropriate citations would be both of:
     
       K. Aidas, C. Angeli, K. L. Bak, V. Bakken, R. Bast,
       L. Boman, O. Christiansen, R. Cimiraglia, S. Coriani,
       P. Dahle, E. K. Dalskov, U. Ekstroem,
       T. Enevoldsen, J. J. Eriksen, P. Ettenhuber, B. Fernandez,
       L. Ferrighi, H. Fliegl, L. Frediani, K. Hald, A. Halkier,
       C. Haettig, H. Heiberg, T. Helgaker, A. C. Hennum,
       H. Hettema, E. Hjertenaes, S. Hoest, I.-M. Hoeyvik,
       M. F. Iozzi, B. Jansik, H. J. Aa. Jensen, D. Jonsson,
       P. Joergensen, J. Kauczor, S. Kirpekar,
       T. Kjaergaard, W. Klopper, S. Knecht, R. Kobayashi, H. Koch,
       J. Kongsted, A. Krapp, K. Kristensen, A. Ligabue,
       O. B. Lutnaes, J. I. Melo, K. V. Mikkelsen, R. H. Myhre,
       C. Neiss, C. B. Nielsen, P. Norman, J. Olsen,
       J. M. H. Olsen, A. Osted, M. J. Packer, F. Pawlowski,
       T. B. Pedersen, P. F. Provasi, S. Reine, Z. Rinkevicius,
       T. A. Ruden, K. Ruud, V. Rybkin, P. Salek, C. C. M. Samson,
       A. Sanchez de Meras, T. Saue, S. P. A. Sauer,
       B. Schimmelpfennig, K. Sneskov, A. H. Steindal,
       K. O. Sylvester-Hvid, P. R. Taylor, A. M. Teale,
       E. I. Tellgren, D. P. Tew, A. J. Thorvaldsen, L. Thoegersen,
       O. Vahtras, M. A. Watson, D. J. D. Wilson, M. Ziolkowski
       and H. Agren,
       "The Dalton quantum chemistry program system",
       WIREs Comput. Mol. Sci. 2014, 4:269–284 (doi: 10.1002/wcms.1172)
     
    and
     
       Dalton, a molecular electronic structure program,
       Release Dalton2020.0 (2020), see http://daltonprogram.org
   ----------------------------------------------------------------------------

    Authors in alphabetical order (Major contribution(s) in parenthesis):

  Kestutis Aidas,           Vilnius University,           Lithuania   (QM/MM)
  Celestino Angeli,         University of Ferrara,        Italy       (NEVPT2)
  Keld L. Bak,              UNI-C,                        Denmark     (AOSOPPA, non-adiabatic coupling, magnetic properties)
  Vebjoern Bakken,          University of Oslo,           Norway      (DALTON; geometry optimizer, symmetry detection)
  Radovan Bast,             UiT The Arctic U. of Norway,  Norway      (DALTON installation and execution frameworks)
  Pablo Baudin,             University of Valencia,       Spain       (Cholesky excitation energies)
  Linus Boman,              NTNU,                         Norway      (Cholesky decomposition and subsystems)
  Bruno N. Cabral Tenorio,  Technical Univ. of Denmark,   Denmark     (Lanczos-based CC methods)
  Ove Christiansen,         Aarhus University,            Denmark     (CC module)
  Renzo Cimiraglia,         University of Ferrara,        Italy       (NEVPT2)
  Sonia Coriani,            Technical Univ. of Denmark,   Denmark     (CC and RESPONS modules)
  Janusz Cukras,            University of Warsaw,         Poland      (MChD in RESPONS)
  Paal Dahle,               University of Oslo,           Norway      (Parallelization)
  Erik K. Dalskov,          UNI-C,                        Denmark     (SOPPA)
  Thomas Enevoldsen,        Univ. of Southern Denmark,    Denmark     (SOPPA)
  Janus J. Eriksen,         Aarhus University,            Denmark     (Polarizable embedding, TDA)
  Rasmus Faber,             Technical Univ. of Denmark,   Denmark     (Vib.avg. NMR w. SOPPA, parallel AO-SOPPA, CVS-CC and EOMCC)
  Tobias Fahleson,          KTH Stockholm,                Sweden      (Damped cubic response)
  Berta Fernandez,          U. of Santiago de Compostela, Spain       (Doublet spin, ESR in RESPONS)
  Lara Ferrighi,            Aarhus University,            Denmark     (PCM Cubic response)
  Heike Fliegl,             University of Oslo,           Norway      (CCSD(R12))
  Luca Frediani,            UiT The Arctic U. of Norway,  Norway      (PCM)
  Emmanuel Fromager,        Univ. Strasbourg,             France      (MC-srDFT)
  Bin Gao,                  UiT The Arctic U. of Norway,  Norway      (Gen1Int library)
  Andre S. P. Gomes,        CNRS/Universite de Lille,     France      (Frozen density embedding)
  Christof Haettig,         Ruhr-University Bochum,       Germany     (CC module)
  Kasper Hald,              Aarhus University,            Denmark     (CC module)
  Asger Halkier,            Aarhus University,            Denmark     (CC module)
  Frederik Beyer Hansen,    University of Copenhagen,     Denmark     (Parallel AO-SOPPA)
  Erik D. Hedegaard,        Univ. of Southern Denmark,    Denmark     (Polarizable embedding, QM/MM, and MC-srDFT)
  Hanne Heiberg,            University of Oslo,           Norway      (Geometry analysis, selected one-electron integrals)
  Trygve Helgaker,          University of Oslo,           Norway      (DALTON; ABACUS, ERI, DFT modules, London, and much more)
  Alf Christian Hennum,     University of Oslo,           Norway      (Parity violation)
  Hinne Hettema,            University of Auckland,       New Zealand (Quadratic response in RESPONS; SIRIUS supersymmetry)
  Eirik Hjertenaes,         NTNU,                         Norway      (Cholesky decomposition)
  Pi A. B. Haase,           University of Copenhagen,     Denmark     (Triplet AO-SOPPA)
  Maria Francesca Iozzi,    University of Oslo,           Norway      (RPA)
  Christoph Jacob           TU Braunschweig               Germany     (Frozen density embedding)
  Brano Jansik              Technical Univ. of Ostrava    Czech Rep.  (DFT cubic response)
  Hans Joergen Aa. Jensen,  Univ. of Southern Denmark,    Denmark     (DALTON; SIRIUS, RESPONS, ABACUS, MC-srDFT, and much more)
  Dan Jonsson,              UiT The Arctic U. of Norway,  Norway      (Cubic response in RESPONS module)
  Poul Joergensen,          Aarhus University,            Denmark     (RESPONS, ABACUS, and CC modules)
  Maciej Kaminski,          University of Warsaw,         Poland      (CPPh in RESPONS)
  Joanna Kauczor,           Linkoeping University,        Sweden      (Complex polarization propagator (CPP) module)
  Sheela Kirpekar,          Univ. of Southern Denmark,    Denmark     (Mass-velocity & Darwin integrals)
  Erik Kjellgren,           Univ. of Southern Denmark,    Denmark     (MC-srDFT)
  Wim Klopper,              KIT Karlsruhe,                Germany     (R12 code in CC, SIRIUS, and ABACUS modules)
  Stefan Knecht,            ETH Zurich,                   Switzerland (Parallel CI and MCSCF, MC-srDFT)
  Rika Kobayashi,           Australian National Univ.,    Australia   (DIIS in CC, London in MCSCF)
  Henrik Koch,              NTNU,                         Norway      (CC module, Cholesky decomposition)
  Jacob Kongsted,           Univ. of Southern Denmark,    Denmark     (Polarizable embedding, polarizable density embedding, QM/MM)
  Andrea Ligabue,           University of Modena,         Italy       (CTOCD, AOSOPPA)
  Nanna H. List             Univ. of Southern Denmark,    Denmark     (Polarizable embedding)
  Ola B. Lutnaes,           University of Oslo,           Norway      (DFT Hessian)
  Juan I. Melo,             University of Buenos Aires,   Argentina   (LRESC, Relativistic Effects on NMR Shieldings)
  Kurt V. Mikkelsen,        University of Copenhagen,     Denmark     (MC-SCRF and QM/MM)
  Rolf H. Myhre,            NTNU,                         Norway      (Subsystems and CC3)
  Christian Neiss,          Univ. Erlangen-Nuernberg,     Germany     (CCSD(R12))
  Christian B. Nielsen,     University of Copenhagen,     Denmark     (QM/MM)
  Patrick Norman,           KTH Stockholm,                Sweden      (Cubic response and complex frequency response in RESPONS)
  Jeppe Olsen,              Aarhus University,            Denmark     (SIRIUS CI/density modules)
  Jogvan Magnus H. Olsen,   Aarhus University,            Denmark     (Polarizable embedding and polarizable density embedding)
  Anders Osted,             Copenhagen University,        Denmark     (QM/MM)
  Martin J. Packer,         University of Sheffield,      UK          (SOPPA)
  Filip Pawlowski,          Kazimierz Wielki University,  Poland      (CC3)
  Morten N. Pedersen,       Univ. of Southern Denmark,    Denmark     (Polarizable embedding)
  Thomas B. Pedersen,       University of Oslo,           Norway      (Cholesky decomposition)
  Patricio F. Provasi,      University of Northeastern,   Argentina   (Analysis of coupling constants in localized orbitals)
  Peter Reinholdt,          Univ. of Southern Denmark,    Denmark     (Polarizable embedding and polarizable density embedding)
  Zilvinas Rinkevicius,     KTH Stockholm,                Sweden      (open-shell DFT, ESR)
  Elias Rudberg,            KTH Stockholm,                Sweden      (DFT grid and basis info)
  Torgeir A. Ruden,         University of Oslo,           Norway      (Numerical derivatives in ABACUS)
  Kenneth Ruud,             UiT The Arctic U. of Norway,  Norway      (DALTON; ABACUS magnetic properties and much more)
  Pawel Salek,              KTH Stockholm,                Sweden      (DALTON; DFT code)
  Claire C. M. Samson       University of Karlsruhe       Germany     (Boys localization, r12 integrals in ERI)
  Alfredo Sanchez de Meras, University of Valencia,       Spain       (CC module, Cholesky decomposition)
  Trond Saue,               Paul Sabatier University,     France      (direct Fock matrix construction)
  Stephan P. A. Sauer,      University of Copenhagen,     Denmark     (SOPPA(CCSD), SOPPA prop., AOSOPPA, vibrational g-factors)
  Bernd Schimmelpfennig,    Forschungszentrum Karlsruhe,  Germany     (AMFI module)
  Anna K. Schnack-Petersen, University of Copenhagen,     Denmark     (RPA(D) and HRPA(D) properties in AOSOPPA)
  Kristian Sneskov,         Aarhus University,            Denmark     (Polarizable embedding, QM/MM)
  Arnfinn H. Steindal,      UiT The Arctic U. of Norway,  Norway      (parallel QM/MM, polarizable embedding)
  Casper Steinmann,         Aalborg University,           Denmark     (QFIT, polarizable embedding)
  K. O. Sylvester-Hvid,     University of Copenhagen,     Denmark     (MC-SCRF)
  Peter R. Taylor,          VLSCI/Univ. of Melbourne,     Australia   (Symmetry handling ABACUS, integral transformation)
  Andrew M. Teale,          University of Nottingham,     England     (DFT-AC, DFT-D)
  David P. Tew,             University of Bristol,        England     (CCSD(R12))
  Julien Toulouse,          Sorbonne Univ.,               France      (MC-srDFT)
  Olav Vahtras,             KTH Stockholm,                Sweden      (Triplet response, spin-orbit, ESR, TDDFT, open-shell DFT)
  Lucas Visscher,           Vrije Universiteit Amsterdam, Netherlands (Frozen density embedding)
  David J. Wilson,          La Trobe University,          Australia   (DFT Hessian and DFT magnetizabilities)
  Hans Agren,               KTH Stockholm,                Sweden      (SIRIUS module, RESPONS, MC-SCRF solvation)
 --------------------------------------------------------------------------------

     Date and time (Linux)  : Tue May 27 16:09:47 2025
     Host name              : xm023                                   

 * Work memory size             :   131072000 = 1000.00 megabytes.

 * Directories for basis set searches:
   1) /gpfs/projects/rjh/adrian/summer2025/beta_projects/raw_data/NLO/dalton/hf/n6/dipole
   2) /gpfs/projects/rjh/adrian/dalton/build/basis


Compilation information
-----------------------

 Who compiled             | ahurtado
 Host                     | milan2
 System                   | Linux-5.14.0-427.42.1.el9_4.x86_64
 CMake generator          | Unix Makefiles
 Processor                | x86_64
 64-bit integers          | OFF
 MPI                      | ON
 Fortran compiler         | /gpfs/software/openmpi/milan/gcc13.2/4.1.6/bin/mpi
                          | f90
 Fortran compiler version | GNU Fortran (GCC) 13.2.0
 C compiler               | /gpfs/software/openmpi/milan/gcc13.2/4.1.6/bin/mpi
                          | cc
 C compiler version       | gcc (GCC) 13.2.0
 C++ compiler             | /gpfs/software/openmpi/milan/gcc13.2/4.1.6/bin/mpi
                          | cxx
 C++ compiler version     | unknown
 BLAS                     | /gpfs/software/intel/oneAPI/2024_2/mkl/2024.2/lib/
                          | intel64/libmkl_gf_lp64.so;/gpfs/software/intel/one
                          | API/2024_2/mkl/2024.2/lib/intel64/libmkl_sequentia
                          | l.so;/gpfs/software/intel/oneAPI/2024_2/mkl/2024.2
                          | /lib/intel64/libmkl_core.so;/usr/lib64/libpthread.
                          | a;/usr/lib64/libm.so
 LAPACK                   | /gpfs/software/intel/oneAPI/2024_2/mkl/2024.2/lib/
                          | intel64/libmkl_lapack95_lp64.a;/gpfs/software/inte
                          | l/oneAPI/2024_2/mkl/2024.2/lib/intel64/libmkl_gf_l
                          | p64.so
 Static linking           | OFF
 Last Git revision        | 66052b3af5ea7225e31178bf9a8b031913c72190
 Git branch               | (HEAD detached at Dalton2020.0)
 Configuration time       | 2025-04-10 16:02:31.569498

 * MPI parallel run using 576 processes.


   Content of the .dal input file
 ----------------------------------

**DALTON INPUT
.RUN RESPONSE
.DIRECT
**WAVE FUNCTIONS
.HF
**PROPERTIES
**RESPONSE
*QUADRA
.DIPLEN
.FREQUENCIES
2
0.0 0.0201
**END OF DALTON INPUT


   Content of the .mol file
 ----------------------------

BASIS
d-aug-cc-pVQZ
blah
blah
Atomtype=4 Angstrom Charge=0 Nosymmetry
Charge=6 Atoms=12
C_a -1.5409340013725623 7.648444002169006 0.0
C_b -2.0062739986099687 6.359974997481831 0.0
C_c -1.117924000488792 5.226000999275696 0.0
C_d -1.512054001638856 3.910470999182316 0.0
C_e -0.5863380016146826 2.807702999139388 0.0
C_f -0.9491559998226989 1.4820489976141258 0.0
C_g 0.0 0.39966299868824806 0.0
C_h -0.3396019991227674 -0.9313269982832101 0.0
C_i 0.6318300011387791 -1.9960939996456535 0.0
C_j 0.31624100019002277 -3.3298059995204445 0.0
C_k 1.3240629984907504 -4.366341999955663 0.0
C_l 1.034302999608722 -5.688294999570765 0.0
Charge=7 Atoms=2
N_a -2.3045209998062157 8.782894000567909 0.0
N_b 2.0916910004841918 -6.691574000934346 0.0
Charge=8 Atoms=2
O_a 3.267613998035823 -6.319843002173978 0.0
O_b 1.710391001350492 -7.868637999804081 0.0
Charge=1 Atoms=14
H_a -0.4588089979387591 7.830007999923906 0.0
H_b -3.089380001340456 6.1770070026268975 0.0
H_c -0.037261997414011726 5.437900001255672 0.0
H_d -2.586386997648074 3.6768810021698886 0.0
H_e 0.4870809995162662 3.0520889997235274 0.0
H_f -2.018261000162647 1.2250459994244614 0.0
H_g 1.067967999601558 0.6655219997529035 0.0
H_h -1.4035229995867406 -1.2083000013807854 0.0
H_i 1.6943540002254438 -1.7107379987228446 0.0
H_j -0.7402810021801856 -3.6304650010264696 0.0
H_k 2.3822630006289045 -4.077865001804448 0.0
H_l 0.03541099903235335 -6.128434001087978 0.0
H_m -3.31398899852896 8.728602000993027 0.0
H_n -1.8783430001741876 9.696697999325472 0.0


       *******************************************************************
       *********** Output from DALTON general input processing ***********
       *******************************************************************

 --------------------------------------------------------------------------------
   Overall default print level:    0
   Print level for DALTON.STAT:    1

    Parallel calculation using MPI
    AO-direct calculation (in sections where implemented)
    HERMIT 1- and 2-electron integral sections will be executed
    "Old" integral transformation used (limited to max 255 basis functions)
    Wave function sections will be executed (SIRIUS module)
    Dynamic molecular response properties section will be executed (RESPONSE module)
 --------------------------------------------------------------------------------


   ****************************************************************************
   *************** Output of molecule and basis set information ***************
   ****************************************************************************


    The two title cards from your ".mol" input:
    ------------------------------------------------------------------------
 1: blah                                                                    
 2: blah                                                                    
    ------------------------------------------------------------------------

  Coordinates are entered in Angstrom and converted to atomic units.
          - Conversion factor : 1 bohr = 0.52917721 A

  Atomic type no.    1
  --------------------
  Nuclear charge:   6.00000
  Number of symmetry independent centers:   12
  Number of basis sets to read;    2
  Basis set file used for this atomic type with Z =   6 :
     "/gpfs/projects/rjh/adrian/dalton/build/basis/aug-cc-pVQZ"

  Atomic type no.    2
  --------------------
  Nuclear charge:   7.00000
  Number of symmetry independent centers:    2
  Number of basis sets to read;    2
  Basis set file used for this atomic type with Z =   7 :
     "/gpfs/projects/rjh/adrian/dalton/build/basis/aug-cc-pVQZ"

  Atomic type no.    3
  --------------------
  Nuclear charge:   8.00000
  Number of symmetry independent centers:    2
  Number of basis sets to read;    2
  Basis set file used for this atomic type with Z =   8 :
     "/gpfs/projects/rjh/adrian/dalton/build/basis/aug-cc-pVQZ"

  Atomic type no.    4
  --------------------
  Nuclear charge:   1.00000
  Number of symmetry independent centers:   14
  Number of basis sets to read;    2
  Basis set file used for this atomic type with Z =   1 :
     "/gpfs/projects/rjh/adrian/dalton/build/basis/aug-cc-pVQZ"


                         SYMGRP: Point group information
                         -------------------------------

@    Point group: C1 


                                 Isotopic Masses
                                 ---------------

                           C_a        12.000000
                           C_b        12.000000
                           C_c        12.000000
                           C_d        12.000000
                           C_e        12.000000
                           C_f        12.000000
                           C_g        12.000000
                           C_h        12.000000
                           C_i        12.000000
                           C_j        12.000000
                           C_k        12.000000
                           C_l        12.000000
                           N_a        14.003074
                           N_b        14.003074
                           O_a        15.994915
                           O_b        15.994915
                           H_a         1.007825
                           H_b         1.007825
                           H_c         1.007825
                           H_d         1.007825
                           H_e         1.007825
                           H_f         1.007825
                           H_g         1.007825
                           H_h         1.007825
                           H_i         1.007825
                           H_j         1.007825
                           H_k         1.007825
                           H_l         1.007825
                           H_m         1.007825
                           H_n         1.007825

                       Total mass:   218.105528 amu
                       Natural abundance:  86.325 %

 Center-of-mass coordinates (a.u.):    0.084529   -0.254926    0.000000
 Center-of-mass coordinates (Angs):    0.044731   -0.134901    0.000000


  Atoms and basis sets
  --------------------

  Number of atom types :    4
  Total number of atoms:   30

  Basis set used is "d-aug-cc-pVQZ" from the basis set library.

  label    atoms   charge   prim   cont     basis
  ----------------------------------------------------------------------
  C_         12    6.0000   118   105      [14s8p5d4f3g|7s6p5d4f3g]                           
  N_          2    7.0000   118   105      [14s8p5d4f3g|7s6p5d4f3g]                           
  O_          2    8.0000   118   105      [14s8p5d4f3g|7s6p5d4f3g]                           
  H_         14    1.0000    64    62      [8s5p4d3f|6s5p4d3f]                                
  ----------------------------------------------------------------------
  total:     30  116.0000  2784  2548
  ----------------------------------------------------------------------
  Spherical harmonic basis used.

  Threshold for neglecting AO integrals:  1.00D-12

  Max    interatomic separation is   17.9282 Angstrom (   33.8794 Bohr)
  between atoms   30 and   16, "H_n   " and "O_b   ".

  Min HX interatomic separation is    1.0083 Angstrom (    1.9054 Bohr)

  Min YX interatomic separation is    1.2333 Angstrom (    2.3306 Bohr)


  Bond distances (Angstrom):
  --------------------------

                  atom 1     atom 2       distance
                  ------     ------       --------
  bond distance:  C_b        C_a          1.369925
  bond distance:  C_c        C_b          1.440508
  bond distance:  C_d        C_c          1.373302
  bond distance:  C_e        C_d          1.439808
  bond distance:  C_f        C_e          1.374407
  bond distance:  C_g        C_f          1.439603
  bond distance:  C_h        C_g          1.373632
  bond distance:  C_i        C_h          1.441322
  bond distance:  C_j        C_i          1.370542
  bond distance:  C_k        C_j          1.445722
  bond distance:  C_l        C_k          1.353337
  bond distance:  N_a        C_a          1.367495
  bond distance:  N_b        C_l          1.457614
  bond distance:  O_a        N_b          1.233280
  bond distance:  O_b        N_b          1.237283
  bond distance:  H_a        C_a          1.097251
  bond distance:  H_b        C_b          1.098452
  bond distance:  H_c        C_c          1.101241
  bond distance:  H_d        C_d          1.099434
  bond distance:  H_e        C_e          1.100887
  bond distance:  H_f        C_f          1.099562
  bond distance:  H_g        C_g          1.100562
  bond distance:  H_h        C_h          1.099383
  bond distance:  H_i        C_i          1.100175
  bond distance:  H_j        C_j          1.098469
  bond distance:  H_k        C_k          1.096816
  bond distance:  H_l        C_l          1.091562
  bond distance:  H_m        N_a          1.010927
  bond distance:  H_n        N_a          1.008298


  Bond angles (degrees):
  ----------------------

                  atom 1     atom 2     atom 3         angle
                  ------     ------     ------         -----
  bond angle:     C_b        C_a        N_a          126.198
  bond angle:     C_b        C_a        H_a          119.382
  bond angle:     N_a        C_a        H_a          114.419
  bond angle:     C_a        C_b        C_c          122.067
  bond angle:     C_a        C_b        H_b          119.446
  bond angle:     C_c        C_b        H_b          118.487
  bond angle:     C_b        C_c        C_d          125.247
  bond angle:     C_b        C_c        H_c          116.981
  bond angle:     C_d        C_c        H_c          117.772
  bond angle:     C_c        C_d        C_e          123.310
  bond angle:     C_c        C_d        H_d          118.945
  bond angle:     C_e        C_d        H_d          117.745
  bond angle:     C_d        C_e        C_f          124.682
  bond angle:     C_d        C_e        H_e          117.186
  bond angle:     C_f        C_e        H_e          118.132
  bond angle:     C_e        C_f        C_g          123.446
  bond angle:     C_e        C_f        H_f          118.823
  bond angle:     C_g        C_f        H_f          117.731
  bond angle:     C_f        C_g        C_h          124.439
  bond angle:     C_f        C_g        H_g          117.269
  bond angle:     C_h        C_g        H_g          118.293
  bond angle:     C_g        C_h        C_i          123.311
  bond angle:     C_g        C_h        H_h          118.906
  bond angle:     C_i        C_h        H_h          117.783
  bond angle:     C_h        C_i        C_j          124.312
  bond angle:     C_h        C_i        H_i          117.343
  bond angle:     C_j        C_i        H_i          118.346
  bond angle:     C_i        C_j        C_k          122.492
  bond angle:     C_i        C_j        H_j          119.198
  bond angle:     C_k        C_j        H_j          118.310
  bond angle:     C_j        C_k        C_l          123.442
  bond angle:     C_j        C_k        H_k          118.946
  bond angle:     C_l        C_k        H_k          117.612
  bond angle:     C_k        C_l        N_b          121.133
  bond angle:     C_k        C_l        H_l          126.143
  bond angle:     N_b        C_l        H_l          112.725
  bond angle:     C_a        N_a        H_m          120.866
  bond angle:     C_a        N_a        H_n          121.053
  bond angle:     H_m        N_a        H_n          118.082
  bond angle:     C_l        N_b        O_a          118.961
  bond angle:     C_l        N_b        O_b          115.547
  bond angle:     O_a        N_b        O_b          125.492




 Principal moments of inertia (u*A**2) and principal axes
 --------------------------------------------------------

   IA      88.457596         -0.268559    0.963263    0.000000
   IB    6848.677198          0.963263    0.268559    0.000000
   IC    6937.134794          0.000000    0.000000    1.000000


 Rotational constants
 --------------------

@    The molecule is planar.

               A                   B                   C

           5713.2347             73.7922             72.8513 MHz
            0.190573            0.002461            0.002430 cm-1


@  Nuclear repulsion energy :  839.879465627210 Hartree


                     .---------------------------------------.
                     | Starting in Integral Section (HERMIT) |
                     `---------------------------------------'



 ***************************************************************************************
 ****************** Output from **INTEGRALS input processing (HERMIT) ******************
 ***************************************************************************************


 - Using defaults, no **INTEGRALS input found

 Default print level:        1

 Calculation of one-electron Hamiltonian integrals.

 Center of mass  (bohr):      0.084529064515     -0.254926480599      0.000000000000
 Operator center (bohr):      0.000000000000      0.000000000000      0.000000000000
 Gauge origin    (bohr):      0.000000000000      0.000000000000      0.000000000000
 Dipole origin   (bohr):      0.000000000000      0.000000000000      0.000000000000


     ************************************************************************
     ************************** Output from HERINT **************************
     ************************************************************************



                      Nuclear contribution to dipole moments
                      --------------------------------------

                 au               Debye          C m (/(10**-30)

      x      0.00000375         0.00000953         0.00003179
      y     -0.00000952        -0.00002420        -0.00008071
      z      0.00000000         0.00000000         0.00000000


  Time used in ONEDRV     is       9.76 seconds
  Time used in HUCKEL     is       2.37 seconds
  Time used in OVERLAP    is       1.37 seconds
  Time used in POPOVLP    is       2.67 seconds
  Time used in R2         is       1.68 seconds
  Time used in R4         is       2.04 seconds
  Time used in DIPLEN     is       2.81 seconds
  Time used in QUADRUP    is       5.67 seconds
  Time used in KINENE     is       2.10 seconds
  Time used in GABGEN     is      1 minute   6 seconds
  Total CPU  time used in HERMIT:  1 minute  37 seconds
  Total wall time used in HERMIT:  1 minute  38 seconds


                        .----------------------------------.
                        | End of Integral Section (HERMIT) |
                        `----------------------------------'



                   .--------------------------------------------.
                   | Starting in Wave Function Section (SIRIUS) |
                   `--------------------------------------------'



@ Primary orbitals are deleted during canonical orthonormalization
@   because of detected numerical linear dependence or too large coefficients.
@ Eigenvalue threshold for num. lin. dep. =  1.00D-06

@ 149 MO components are deleted in symmetry    1
 Overlap eigenvalues of the deleted orbitals:
  9.87D-07  9.80D-07  9.77D-07  9.61D-07  9.59D-07
  9.30D-07  9.01D-07  8.75D-07  8.62D-07  8.05D-07
  7.89D-07  7.69D-07  7.48D-07  7.14D-07  6.89D-07
  6.81D-07  6.49D-07  6.43D-07  6.32D-07  5.95D-07
  5.92D-07  5.55D-07  5.41D-07  5.21D-07  5.16D-07
  5.07D-07  4.99D-07  4.76D-07  4.57D-07  4.50D-07
  4.40D-07  4.25D-07  3.91D-07  3.84D-07  3.79D-07
  3.64D-07  3.44D-07  3.25D-07  2.99D-07  2.95D-07
  2.87D-07  2.81D-07  2.81D-07  2.73D-07  2.71D-07
  2.60D-07  2.52D-07  2.47D-07  2.44D-07  2.34D-07
  2.20D-07  2.01D-07  1.93D-07  1.80D-07  1.73D-07
  1.63D-07  1.60D-07  1.53D-07  1.37D-07  1.31D-07
  1.27D-07  1.22D-07  1.15D-07  1.13D-07  1.09D-07
  1.02D-07  9.97D-08  9.46D-08  9.37D-08  8.48D-08
  8.28D-08  8.12D-08  7.67D-08  7.28D-08  6.96D-08
  6.60D-08  6.13D-08  5.84D-08  5.47D-08  5.04D-08
  4.93D-08  4.91D-08  4.57D-08  4.39D-08  4.18D-08
  3.88D-08  3.65D-08  3.34D-08  3.17D-08  3.01D-08
  2.86D-08  2.83D-08  2.71D-08  2.54D-08  2.37D-08
  2.18D-08  2.11D-08  1.90D-08  1.85D-08  1.70D-08
  1.65D-08  1.60D-08  1.51D-08  1.44D-08  1.43D-08
  1.37D-08  1.25D-08  1.16D-08  1.12D-08  1.08D-08
  1.03D-08  9.27D-09  9.09D-09  8.04D-09  7.85D-09
  7.71D-09  7.42D-09  6.75D-09  6.70D-09  6.54D-09
  5.91D-09  5.65D-09  5.24D-09  4.85D-09  4.24D-09
  4.05D-09  3.90D-09  3.45D-09  3.19D-09  3.07D-09
  2.98D-09  2.76D-09  2.48D-09  2.32D-09  2.17D-09
  1.88D-09  1.66D-09  1.60D-09  1.47D-09  1.42D-09
  1.32D-09  1.21D-09  1.03D-09  8.57D-10  6.85D-10
  4.38D-10  3.36D-10  2.91D-10  4.91D-11

 Max MO coeff. of last deleted MO & limit:  1.87D+02  1.00D+03

WARNING: Orbitals have been deleted because of numerical
   linear dependence although not requested in input.

 *** Output from Huckel module :

     Using EWMO model:          T
     Using EHT  model:          F
     Number of Huckel orbitals each symmetry:   94

 EWMO - Energy Weighted Maximum Overlap - is a Huckel type method,
        which normally is better than Extended Huckel Theory.
 Reference: Linderberg and Ohrn, Propagators in Quantum Chemistry (Wiley, 1973)

 Huckel EWMO eigenvalues for symmetry :  1
          -20.684751     -20.683489     -15.677076     -15.674974     -11.359272
          -11.359089     -11.358575     -11.356923     -11.354453     -11.351843
          -11.348237     -11.346829     -11.345842     -11.345475     -11.345302
          -11.345275      -1.964070      -1.791004      -1.771497      -1.714524
           -1.610037      -1.472373      -1.438433      -1.304227      -1.191901
           -1.144337      -1.118703      -1.019259      -0.990557      -0.910296
           -0.869944      -0.851997      -0.824360      -0.768146      -0.765496
           -0.721976      -0.714853      -0.693582      -0.647974      -0.644434
           -0.611097      -0.594796      -0.585975      -0.566900      -0.547087
           -0.534422      -0.522376      -0.501686      -0.491914      -0.491873
           -0.489577      -0.479132      -0.478316      -0.467189      -0.424763
           -0.415728      -0.374310      -0.370913      -0.334716      -0.287126
           -0.253635      -0.229179      -0.228800      -0.211810      -0.201193
           -0.201104      -0.195466      -0.190507      -0.166495      -0.142763
           -0.138674      -0.132387      -0.130592      -0.130127      -0.129288
           -0.128661      -0.127701      -0.126874      -0.126319      -0.124647
           -0.124407      -0.123086      -0.110071      -0.108405      -0.101713
           -0.099251      -0.094039      -0.091531      -0.089081      -0.086814
           -0.085945      -0.083848      -0.081393      -0.079509

 **********************************************************************
 *SIRIUS* a direct, restricted step, second order MCSCF program       *
 **********************************************************************

 
     Date and time (Linux)  : Tue May 27 16:27:24 2025
     Host name              : xm023                                   

 Title lines from ".mol" input file:
     blah                                                                    
     blah                                                                    

 Print level on unit LUPRI =   2 is   0
 Print level on unit LUW4  =   2 is   5

@    Restricted, closed shell Hartree-Fock calculation.

@    Time-dependent Hartree-Fock calculation (random phase approximation).
 Fock matrices are calculated directly and in parallel without use of integrals on disk.

 Initial molecular orbitals are obtained according to
 ".MOSTART EWMO  " input option

     Wave function specification
     ============================
@    Wave function type        --- HF ---
@    Number of closed shell electrons         116
@    Number of electrons in active shells       0
@    Total charge of the molecule               0

@    Spin multiplicity and 2 M_S                1         0
@    Total number of symmetries                 1 (point group: C1 )
@    Reference state symmetry                   1 (irrep name : A  )

     Orbital specifications
     ======================
@    Abelian symmetry species          All |    1
@                                          |  A  
                                       --- |  ---
@    Occupied SCF orbitals              58 |   58
@    Secondary orbitals               2341 | 2341
@    Total number of orbitals         2399 | 2399
@    Number of basis functions        2548 | 2548

     Optimization information
     ========================
@    Number of configurations                 1
@    Number of orbital rotations         135778
     ------------------------------------------
@    Total number of variables           135779

     Maximum number of Fock   iterations      0
     Maximum number of DIIS   iterations     60
     Maximum number of QC-SCF iterations     60
     Threshold for SCF convergence     1.00D-05

    INFORMATION: Switched to "new" integral transformation (from 1988 ;-) )
    because more than 255 basis functions.


 ***********************************************
 ***** DIIS acceleration of SCF iterations *****
 ***********************************************

 C1-DIIS algorithm; max error vectors =    8

 Iter      Total energy        Error norm    Delta(E)  DIIS dim.
 -----------------------------------------------------------------------------
   1  Screening settings (-IFTHRS, JTDIIS, DIFDEN, times)  -10    1    T  4.09D+02  4.11D+02
@  1    -718.379188341        6.98596D+00   -7.18D+02    1
      Virial theorem: -V/T =      2.008403
@    MULPOP   C_a     1.18; C_b    -0.21; C_c     0.13; C_d    -0.14; C_e     0.16; C_f    -0.02; C_g     0.13; C_h    -0.07; C_i     0.12; C_j     0.05; 
@             C_k     0.01; C_l     0.79; N_a    -1.27; N_b     4.50; O_a    -3.03; O_b    -3.44; H_a     0.22; H_b     0.16; H_c    -0.06; H_d     0.04; 
@             H_e     0.03; H_f     0.06; H_g    -0.00; H_h     0.06; H_i     0.08; H_j     0.02; H_k     0.17; H_l     0.06; H_m     0.19; H_n     0.08; 
   1  Level shift: doubly occupied orbital energies shifted by -2.00D-01
 -----------------------------------------------------------------------------
   2  Screening settings (-IFTHRS, JTDIIS, DIFDEN, times)  -10    2    T  4.34D+02  4.36D+02
@  2    -720.816490562        2.92040D+00   -2.44D+00    2
      Virial theorem: -V/T =      2.001139
@    MULPOP   C_a     0.44; C_b    -0.19; C_c    -0.23; C_d    -0.08; C_e    -0.17; C_f    -0.23; C_g    -0.16; C_h    -0.17; C_i    -0.01; C_j    -0.27; 
@             C_k    -0.02; C_l    -0.19; N_a    -0.86; N_b     1.61; O_a    -0.99; O_b    -1.06; H_a     0.24; H_b     0.21; H_c     0.11; H_d     0.15; 
@             H_e     0.19; H_f     0.18; H_g     0.18; H_h     0.19; H_i     0.21; H_j     0.13; H_k     0.23; H_l     0.15; H_m     0.24; H_n     0.17; 
   2  Level shift: doubly occupied orbital energies shifted by -1.00D-01
 -----------------------------------------------------------------------------
   3  Screening settings (-IFTHRS, JTDIIS, DIFDEN, times)  -10    3    T  4.34D+02  4.36D+02
@  3    -721.218489988        8.78183D-01   -4.02D-01    3
      Virial theorem: -V/T =      2.001210
@    MULPOP   C_a     0.46; C_b    -0.10; C_c    -0.16; C_d    -0.00; C_e    -0.07; C_f    -0.17; C_g    -0.08; C_h    -0.08; C_i     0.08; C_j    -0.13; 
@             C_k     0.16; C_l    -0.05; N_a    -0.68; N_b     2.18; O_a    -1.23; O_b    -1.51; H_a     0.15; H_b     0.09; H_c     0.03; H_d     0.07; 
@             H_e     0.12; H_f     0.10; H_g     0.11; H_h     0.10; H_i     0.13; H_j     0.02; H_k     0.13; H_l     0.04; H_m     0.17; H_n     0.10; 
   3  Level shift: doubly occupied orbital energies shifted by -5.00D-02
 -----------------------------------------------------------------------------
   4  Screening settings (-IFTHRS, JTDIIS, DIFDEN, times)  -10    4    T  4.26D+02  4.28D+02
@  4    -721.265884943        2.54392D-01   -4.74D-02    4
      Virial theorem: -V/T =      2.003086
@    MULPOP   C_a     0.45; C_b    -0.08; C_c    -0.12; C_d     0.05; C_e    -0.04; C_f    -0.13; C_g    -0.03; C_h    -0.06; C_i     0.14; C_j    -0.13; 
@             C_k     0.22; C_l    -0.13; N_a    -0.61; N_b     2.02; O_a    -1.18; O_b    -1.39; H_a     0.13; H_b     0.05; H_c    -0.00; H_d     0.03; 
@             H_e     0.09; H_f     0.07; H_g     0.08; H_h     0.07; H_i     0.11; H_j     0.00; H_k     0.12; H_l     0.05; H_m     0.15; H_n     0.07; 
   4  Level shift: doubly occupied orbital energies shifted by -2.50D-02
 -----------------------------------------------------------------------------
   5  Screening settings (-IFTHRS, JTDIIS, DIFDEN, times)  -14    5    F  4.50D+02  4.52D+02
@  5    -721.274743788        1.04025D-01   -8.86D-03    5
      Virial theorem: -V/T =      2.002430
@    MULPOP   C_a     0.43; C_b    -0.09; C_c    -0.13; C_d     0.04; C_e    -0.05; C_f    -0.14; C_g    -0.04; C_h    -0.07; C_i     0.12; C_j    -0.14; 
@             C_k     0.20; C_l    -0.11; N_a    -0.60; N_b     2.06; O_a    -1.17; O_b    -1.42; H_a     0.13; H_b     0.06; H_c     0.01; H_d     0.05; 
@             H_e     0.10; H_f     0.08; H_g     0.09; H_h     0.08; H_i     0.12; H_j     0.01; H_k     0.13; H_l     0.05; H_m     0.15; H_n     0.07; 
   5  Level shift: doubly occupied orbital energies shifted by -1.25D-02
 -----------------------------------------------------------------------------
   6  Screening settings (-IFTHRS, JTDIIS, DIFDEN, times)  -14    6    T  4.47D+02  4.49D+02
@  6    -721.277076073        5.08054D-02   -2.33D-03    6
      Virial theorem: -V/T =      2.002296
@    MULPOP   C_a     0.43; C_b    -0.09; C_c    -0.13; C_d     0.04; C_e    -0.05; C_f    -0.14; C_g    -0.04; C_h    -0.07; C_i     0.13; C_j    -0.13; 
@             C_k     0.21; C_l    -0.13; N_a    -0.61; N_b     2.04; O_a    -1.17; O_b    -1.40; H_a     0.13; H_b     0.06; H_c     0.01; H_d     0.05; 
@             H_e     0.10; H_f     0.08; H_g     0.09; H_h     0.08; H_i     0.12; H_j     0.01; H_k     0.13; H_l     0.05; H_m     0.15; H_n     0.07; 
 -----------------------------------------------------------------------------
   7  Screening settings (-IFTHRS, JTDIIS, DIFDEN, times)  -14    7    T  4.48D+02  4.50D+02
@  7    -721.277737274        2.43886D-02   -6.61D-04    7
      Virial theorem: -V/T =      2.002340
@    MULPOP   C_a     0.42; C_b    -0.09; C_c    -0.14; C_d     0.05; C_e    -0.05; C_f    -0.14; C_g    -0.04; C_h    -0.07; C_i     0.13; C_j    -0.14; 
@             C_k     0.21; C_l    -0.13; N_a    -0.61; N_b     2.05; O_a    -1.16; O_b    -1.41; H_a     0.13; H_b     0.06; H_c     0.01; H_d     0.04; 
@             H_e     0.10; H_f     0.08; H_g     0.09; H_h     0.08; H_i     0.12; H_j     0.01; H_k     0.13; H_l     0.05; H_m     0.15; H_n     0.07; 
 -----------------------------------------------------------------------------
   8  Screening settings (-IFTHRS, JTDIIS, DIFDEN, times)  -14    8    T  4.46D+02  4.49D+02
@  8    -721.277885047        1.01043D-02   -1.48D-04    8
      Virial theorem: -V/T =      2.002333
@    MULPOP   C_a     0.42; C_b    -0.09; C_c    -0.14; C_d     0.05; C_e    -0.06; C_f    -0.14; C_g    -0.04; C_h    -0.07; C_i     0.13; C_j    -0.13; 
@             C_k     0.21; C_l    -0.13; N_a    -0.61; N_b     2.06; O_a    -1.17; O_b    -1.41; H_a     0.13; H_b     0.06; H_c     0.01; H_d     0.04; 
@             H_e     0.10; H_f     0.08; H_g     0.09; H_h     0.08; H_i     0.12; H_j     0.01; H_k     0.13; H_l     0.05; H_m     0.15; H_n     0.07; 
 -----------------------------------------------------------------------------
   9  Screening settings (-IFTHRS, JTDIIS, DIFDEN, times)  -14    9    T  4.46D+02  4.48D+02
@  9    -721.277906375        3.75456D-03   -2.13D-05    8
      Virial theorem: -V/T =      2.002323
@    MULPOP   C_a     0.42; C_b    -0.09; C_c    -0.14; C_d     0.05; C_e    -0.06; C_f    -0.14; C_g    -0.04; C_h    -0.07; C_i     0.13; C_j    -0.13; 
@             C_k     0.21; C_l    -0.13; N_a    -0.61; N_b     2.05; O_a    -1.16; O_b    -1.41; H_a     0.13; H_b     0.06; H_c     0.01; H_d     0.04; 
@             H_e     0.10; H_f     0.08; H_g     0.09; H_h     0.08; H_i     0.12; H_j     0.01; H_k     0.13; H_l     0.05; H_m     0.15; H_n     0.07; 
 -----------------------------------------------------------------------------
  10  Screening settings (-IFTHRS, JTDIIS, DIFDEN, times)  -14   10    T  4.41D+02  4.44D+02
@ 10    -721.277910777        1.97956D-03   -4.40D-06    8
      Virial theorem: -V/T =      2.002324
@    MULPOP   C_a     0.42; C_b    -0.09; C_c    -0.14; C_d     0.05; C_e    -0.06; C_f    -0.14; C_g    -0.04; C_h    -0.07; C_i     0.13; C_j    -0.13; 
@             C_k     0.21; C_l    -0.13; N_a    -0.61; N_b     2.05; O_a    -1.16; O_b    -1.41; H_a     0.13; H_b     0.06; H_c     0.01; H_d     0.04; 
@             H_e     0.10; H_f     0.08; H_g     0.09; H_h     0.08; H_i     0.12; H_j     0.01; H_k     0.13; H_l     0.05; H_m     0.15; H_n     0.07; 
 -----------------------------------------------------------------------------
  11  Screening settings (-IFTHRS, JTDIIS, DIFDEN, times)  -14   11    T  4.39D+02  4.41D+02
@ 11    -721.277912245        1.18618D-03   -1.47D-06    8
      Virial theorem: -V/T =      2.002325
@    MULPOP   C_a     0.42; C_b    -0.09; C_c    -0.14; C_d     0.05; C_e    -0.06; C_f    -0.14; C_g    -0.04; C_h    -0.07; C_i     0.13; C_j    -0.13; 
@             C_k     0.21; C_l    -0.13; N_a    -0.61; N_b     2.05; O_a    -1.16; O_b    -1.41; H_a     0.13; H_b     0.06; H_c     0.01; H_d     0.04; 
@             H_e     0.10; H_f     0.08; H_g     0.09; H_h     0.08; H_i     0.12; H_j     0.01; H_k     0.13; H_l     0.05; H_m     0.15; H_n     0.07; 
 -----------------------------------------------------------------------------
  12  Screening settings (-IFTHRS, JTDIIS, DIFDEN, times)  -14   12    T  4.39D+02  4.42D+02
@ 12    -721.277912765        3.82874D-04   -5.19D-07    8
      Virial theorem: -V/T =      2.002324
@    MULPOP   C_a     0.42; C_b    -0.09; C_c    -0.14; C_d     0.05; C_e    -0.06; C_f    -0.14; C_g    -0.04; C_h    -0.07; C_i     0.13; C_j    -0.13; 
@             C_k     0.21; C_l    -0.13; N_a    -0.61; N_b     2.05; O_a    -1.16; O_b    -1.41; H_a     0.13; H_b     0.06; H_c     0.01; H_d     0.04; 
@             H_e     0.10; H_f     0.08; H_g     0.09; H_h     0.08; H_i     0.12; H_j     0.01; H_k     0.13; H_l     0.05; H_m     0.15; H_n     0.07; 
 -----------------------------------------------------------------------------
  13  Screening settings (-IFTHRS, JTDIIS, DIFDEN, times)  -14   13    T  4.38D+02  4.40D+02
@ 13    -721.277912823        1.56343D-04   -5.85D-08    8
      Virial theorem: -V/T =      2.002324
@    MULPOP   C_a     0.42; C_b    -0.09; C_c    -0.14; C_d     0.05; C_e    -0.06; C_f    -0.14; C_g    -0.04; C_h    -0.07; C_i     0.13; C_j    -0.13; 
@             C_k     0.21; C_l    -0.13; N_a    -0.61; N_b     2.05; O_a    -1.16; O_b    -1.41; H_a     0.13; H_b     0.06; H_c     0.01; H_d     0.04; 
@             H_e     0.10; H_f     0.08; H_g     0.09; H_h     0.08; H_i     0.12; H_j     0.01; H_k     0.13; H_l     0.05; H_m     0.15; H_n     0.07; 
 -----------------------------------------------------------------------------
  14  Screening settings (-IFTHRS, JTDIIS, DIFDEN, times)  -14   14    T  4.31D+02  4.33D+02
@ 14    -721.277912827        5.66766D-05   -4.22D-09    8
      Virial theorem: -V/T =      2.002324
@    MULPOP   C_a     0.42; C_b    -0.09; C_c    -0.14; C_d     0.05; C_e    -0.06; C_f    -0.14; C_g    -0.04; C_h    -0.07; C_i     0.13; C_j    -0.13; 
@             C_k     0.21; C_l    -0.13; N_a    -0.61; N_b     2.05; O_a    -1.16; O_b    -1.41; H_a     0.13; H_b     0.06; H_c     0.01; H_d     0.04; 
@             H_e     0.10; H_f     0.08; H_g     0.09; H_h     0.08; H_i     0.12; H_j     0.01; H_k     0.13; H_l     0.05; H_m     0.15; H_n     0.07; 
 -----------------------------------------------------------------------------
  15  Screening settings (-IFTHRS, JTDIIS, DIFDEN, times)  -14   15    T  4.29D+02  4.31D+02
@ 15    -721.277912828        2.25319D-05   -7.10D-10    8
      Virial theorem: -V/T =      2.002324
@    MULPOP   C_a     0.42; C_b    -0.09; C_c    -0.14; C_d     0.05; C_e    -0.06; C_f    -0.14; C_g    -0.04; C_h    -0.07; C_i     0.13; C_j    -0.13; 
@             C_k     0.21; C_l    -0.13; N_a    -0.61; N_b     2.05; O_a    -1.16; O_b    -1.41; H_a     0.13; H_b     0.06; H_c     0.01; H_d     0.04; 
@             H_e     0.10; H_f     0.08; H_g     0.09; H_h     0.08; H_i     0.12; H_j     0.01; H_k     0.13; H_l     0.05; H_m     0.15; H_n     0.07; 
 -----------------------------------------------------------------------------
  16  Screening settings (-IFTHRS, JTDIIS, DIFDEN, times)  -14   16    T  4.33D+02  4.35D+02
@ 16    -721.277912828        1.06572D-05   -7.71D-11    8
      Virial theorem: -V/T =      2.002324
@    MULPOP   C_a     0.42; C_b    -0.09; C_c    -0.14; C_d     0.05; C_e    -0.06; C_f    -0.14; C_g    -0.04; C_h    -0.07; C_i     0.13; C_j    -0.13; 
@             C_k     0.21; C_l    -0.13; N_a    -0.61; N_b     2.05; O_a    -1.16; O_b    -1.41; H_a     0.13; H_b     0.06; H_c     0.01; H_d     0.04; 
@             H_e     0.10; H_f     0.08; H_g     0.09; H_h     0.08; H_i     0.12; H_j     0.01; H_k     0.13; H_l     0.05; H_m     0.15; H_n     0.07; 
 -----------------------------------------------------------------------------
  17  Screening settings (-IFTHRS, JTDIIS, DIFDEN, times)  -14   17    T  4.33D+02  4.35D+02
@ 17    -721.277912828        5.96897D-06   -2.43D-11    8

@ *** DIIS converged in  17 iterations !
@     Converged SCF energy, gradient:   -721.277912828016    5.97D-06
    - total time used in SIRFCK :              0.00 seconds


 *** SCF orbital energy analysis ***

 Only the 20 lowest virtual orbital energies printed in each symmetry.

 Number of electrons :  116
 Orbital occupations :   58

 Sym       Hartree-Fock orbital energies

1 A     -20.58066419   -20.57783952   -15.83212531   -15.59794491   -11.31048782
        -11.28417640   -11.28189638   -11.27350297   -11.26552953   -11.26246639
        -11.26053116   -11.25200254   -11.24599067   -11.24095473   -11.23550321
        -11.23270587    -1.57265941    -1.37052328    -1.24463369    -1.13788140
         -1.11953889    -1.09815918    -1.06711155    -1.02747446    -0.98056466
         -0.93525702    -0.86926744    -0.82271156    -0.79300356    -0.78082894
         -0.77049335    -0.76491523    -0.73130597    -0.72462727    -0.70772310
         -0.69166724    -0.68783285    -0.65862004    -0.65024077    -0.62538961
         -0.60105460    -0.59043863    -0.56914748    -0.54868490    -0.54690344
         -0.53240182    -0.53035233    -0.51873798    -0.50842398    -0.49272141
         -0.47673200    -0.47409410    -0.46699326    -0.43550054    -0.42827359
         -0.37686651    -0.31506695    -0.24953997    -0.00129474     0.00378260
          0.00665075     0.00994376     0.01055813     0.01205298     0.01513117
          0.01705201     0.01781692     0.01826059     0.01926845     0.02019864
          0.02212194     0.02247147     0.02291587     0.02408299     0.02590679
          0.02770344     0.02961693     0.02968818

    E(LUMO) :    -0.00129474 au (symmetry 1)
  - E(HOMO) :    -0.24953997 au (symmetry 1)
  ------------------------------------------
    gap     :     0.24824523 au

 --- Writing SIRIFC interface file

 CPU and wall time for SCF :    9320.150    9377.944


                       .-----------------------------------.
                       | --- Final results from SIRIUS --- |
                       `-----------------------------------'


@    Spin multiplicity:           1
@    Spatial symmetry:            1 ( irrep  A   in C1  )
@    Total charge of molecule:    0

@    Final HF energy:            -721.277912828016                 
@    Nuclear repulsion:           839.879465627210
@    Electronic energy:         -1561.157378455227

@    Final gradient norm:           0.000005968969

 
     Date and time (Linux)  : Tue May 27 19:04:16 2025
     Host name              : xm023                                   

File label for MO orbitals:  27May25   FOCKDIIS

 (Only coefficients > 0.0100 are printed.)

 Molecular orbitals for symmetry species 1  (A  )
 ------------------------------------------------

    Orbital        49       50       51       52       53       54       55
   4 C_a :1s     0.0193   0.0000  -0.0090   0.0103   0.0000   0.0000  -0.0000
   5 C_a :1s     0.0032   0.0000   0.0054   0.0170   0.0000   0.0000  -0.0000
   6 C_a :1s     0.0087   0.0000   0.0088   0.0198   0.0000   0.0000  -0.0000
   7 C_a :1s     0.0321  -0.0000   0.0077  -0.0137  -0.0000  -0.0000   0.0000
   8 C_a :2px   -0.0298  -0.0000   0.0005  -0.0000  -0.0000  -0.0000   0.0000
  10 C_a :2pz   -0.0000   0.0338   0.0000   0.0000   0.0310  -0.0018   0.0302
  15 C_a :2py   -0.0215  -0.0000   0.0020  -0.0026  -0.0000  -0.0000   0.0000
  16 C_a :2pz    0.0000   0.0019   0.0000  -0.0000   0.0001  -0.0005   0.0113
  17 C_a :2px    0.0165   0.0000  -0.0172   0.0138  -0.0000  -0.0000   0.0000
  18 C_a :2py   -0.0011   0.0000   0.0012   0.0207   0.0000   0.0000  -0.0000
  19 C_a :2pz   -0.0000   0.0298   0.0000   0.0000   0.0016   0.0024   0.0646
  20 C_a :2px   -0.0050  -0.0000  -0.0123   0.0180  -0.0000  -0.0000   0.0000
  21 C_a :2py    0.0096   0.0000  -0.0228  -0.0033  -0.0000   0.0000  -0.0000
  22 C_a :2pz    0.0000  -0.0153   0.0000  -0.0000  -0.0373  -0.0107   0.0058
  23 C_a :2px    0.0011  -0.0000  -0.0077  -0.0160  -0.0000  -0.0000   0.0000
  24 C_a :2py   -0.0053  -0.0000  -0.0069   0.0127   0.0000   0.0000  -0.0000
  32 C_a :3d1-   0.0000   0.0023   0.0000  -0.0000   0.0065   0.0010  -0.0104
  36 C_a :3d2-   0.0124   0.0000   0.0024   0.0007   0.0000   0.0000  -0.0000
  41 C_a :3d2-   0.0121  -0.0000   0.0334  -0.0183   0.0000   0.0000  -0.0000
  42 C_a :3d1-   0.0000  -0.0809   0.0000  -0.0000  -0.0957  -0.0184   0.0430
  45 C_a :3d2+   0.0085   0.0000  -0.0090   0.0194   0.0000   0.0000  -0.0000
  46 C_a :3d2-   0.0019  -0.0000  -0.0015   0.0103   0.0000   0.0000  -0.0000
  47 C_a :3d1-  -0.0000   0.0073  -0.0000  -0.0000   0.0026   0.0037  -0.0156
  49 C_a :3d1+  -0.0000   0.0174  -0.0000   0.0000   0.0177  -0.0002   0.0124
  65 C_a :4f3-  -0.0143  -0.0000   0.0002  -0.0006  -0.0000  -0.0000   0.0000
  72 C_a :4f3-  -0.0155  -0.0000  -0.0082   0.0021  -0.0000  -0.0000   0.0000
  73 C_a :4f2-  -0.0000   0.0331  -0.0000   0.0000   0.0251   0.0068  -0.0082
  75 C_a :4f0   -0.0000   0.0155  -0.0000   0.0000   0.0104   0.0017   0.0020
  77 C_a :4f2+   0.0000  -0.0069   0.0000  -0.0000  -0.0336  -0.0038   0.0208
  78 C_a :4f3+   0.0001  -0.0000   0.0027  -0.0135  -0.0000  -0.0000   0.0000
 107 C_b :1s     0.0574   0.0000   0.0028  -0.0001   0.0000   0.0000  -0.0000
 109 C_b :1s     0.0246   0.0000  -0.0012  -0.0047   0.0000   0.0000  -0.0000
 112 C_b :1s     0.0282   0.0000  -0.0277   0.0055   0.0000   0.0000  -0.0000
 113 C_b :2px    0.1749   0.0000   0.0036  -0.0003   0.0000   0.0000  -0.0000
 114 C_b :2py   -0.0931  -0.0000  -0.0063   0.0004  -0.0000  -0.0000   0.0000
 115 C_b :2pz    0.0000  -0.0209   0.0000  -0.0000  -0.1089  -0.0203   0.2200
 120 C_b :2py   -0.0190  -0.0000  -0.0038   0.0025  -0.0000  -0.0000   0.0000
 121 C_b :2pz    0.0000  -0.0008   0.0000  -0.0000  -0.0068  -0.0012   0.0163
 122 C_b :2px   -0.0176  -0.0000   0.0120   0.0074   0.0000   0.0000  -0.0000
 124 C_b :2pz    0.0000  -0.0273  -0.0000  -0.0000  -0.1054  -0.0114   0.0652
 125 C_b :2px    0.0088   0.0000  -0.0047   0.0479   0.0000   0.0000  -0.0000
 126 C_b :2py    0.0092  -0.0000  -0.0055   0.0184  -0.0000  -0.0000  -0.0000
 127 C_b :2pz    0.0000   0.0120   0.0000  -0.0000   0.0373  -0.0043  -0.0087
 128 C_b :2px   -0.0078   0.0000   0.0029  -0.0113  -0.0000  -0.0000  -0.0000
 129 C_b :2py    0.0092   0.0000   0.0163  -0.0107   0.0000  -0.0000   0.0000
 130 C_b :2pz   -0.0000   0.0000  -0.0000   0.0000   0.0160   0.0107  -0.0195
 144 C_b :3d1+   0.0000  -0.0012   0.0000  -0.0000  -0.0092  -0.0013   0.0167
 145 C_b :3d2+   0.0457   0.0000  -0.0037   0.0067   0.0000   0.0000  -0.0000
 146 C_b :3d2-  -0.0083   0.0000  -0.0009  -0.0150  -0.0000   0.0000  -0.0000
 147 C_b :3d1-   0.0000  -0.0562  -0.0000  -0.0000  -0.0760  -0.0068  -0.0500
 149 C_b :3d1+   0.0000  -0.0009   0.0000  -0.0000  -0.0548  -0.0168   0.0274
 151 C_b :3d2-  -0.0079   0.0000   0.0106  -0.0105   0.0000   0.0000  -0.0000
 152 C_b :3d1-   0.0000   0.0088   0.0000  -0.0000   0.0168  -0.0014   0.0453
 154 C_b :3d1+   0.0000  -0.0289   0.0000  -0.0000  -0.0163   0.0080   0.0006
 175 C_b :4f2+  -0.0000   0.0038   0.0000   0.0000   0.0013  -0.0009   0.0167
 176 C_b :4f3+   0.0192   0.0000  -0.0049   0.0063   0.0000   0.0000  -0.0000
 177 C_b :4f3-  -0.0106  -0.0000   0.0249  -0.0177   0.0000   0.0000  -0.0000
 178 C_b :4f2-   0.0000  -0.0244   0.0000  -0.0000  -0.0450   0.0005   0.0069
 180 C_b :4f0    0.0000  -0.0087   0.0000  -0.0000  -0.0329  -0.0039   0.0267
 182 C_b :4f2+   0.0000  -0.0119   0.0000  -0.0000  -0.0416  -0.0065   0.0147
 183 C_b :4f3+   0.0073   0.0000   0.0114  -0.0089   0.0000   0.0000  -0.0000
 212 C_c :1s     0.0449   0.0000  -0.0024   0.0002   0.0000   0.0000  -0.0000
 214 C_c :1s     0.0803   0.0000  -0.0093   0.0125   0.0000   0.0000  -0.0000
 216 C_c :1s    -0.0072   0.0000   0.0214   0.0064   0.0000   0.0000  -0.0000
 217 C_c :1s    -0.0067  -0.0000   0.0248  -0.0198   0.0000   0.0000   0.0000
 218 C_c :2px   -0.2512  -0.0000  -0.0026   0.0001  -0.0000  -0.0000   0.0000
 220 C_c :2pz    0.0000  -0.0930   0.0000  -0.0000  -0.2568  -0.0315   0.3118
 224 C_c :2px   -0.0198  -0.0000  -0.0011  -0.0008  -0.0000  -0.0000   0.0000
 226 C_c :2pz    0.0000  -0.0041   0.0000  -0.0000  -0.0210  -0.0026   0.0266
 227 C_c :2px    0.0008  -0.0000   0.0132  -0.0241  -0.0000  -0.0000   0.0000
 228 C_c :2py   -0.0129  -0.0000   0.0199  -0.0034  -0.0000  -0.0000   0.0000
 229 C_c :2pz    0.0000  -0.0221   0.0000  -0.0000  -0.0797   0.0068  -0.0121
 230 C_c :2px    0.0154  -0.0000  -0.0174   0.0017  -0.0000  -0.0000   0.0000
 232 C_c :2pz    0.0000   0.0272   0.0000  -0.0000  -0.0084   0.0288   0.0320
 233 C_c :2px    0.0071   0.0000   0.0298   0.0282   0.0000   0.0000  -0.0000
 234 C_c :2py   -0.0117   0.0000   0.0007  -0.0020  -0.0000  -0.0000  -0.0000
 235 C_c :2pz   -0.0000  -0.0043   0.0000   0.0000   0.0049  -0.0152   0.0328
 245 C_c :3d2+  -0.0128  -0.0000  -0.0000  -0.0001  -0.0000  -0.0000   0.0000
 246 C_c :3d2-   0.0313   0.0000  -0.0004  -0.0036   0.0000   0.0000  -0.0000
 247 C_c :3d1-  -0.0000   0.0047  -0.0000   0.0000   0.0294  -0.0008   0.0033
 248 C_c :3d0    0.0141   0.0000  -0.0028   0.0038   0.0000   0.0000  -0.0000
 249 C_c :3d1+  -0.0000   0.0035  -0.0000   0.0000   0.0117   0.0028  -0.0255
 250 C_c :3d2+   0.0551   0.0000   0.0051  -0.0052   0.0000   0.0000  -0.0000
 251 C_c :3d2-   0.0120   0.0000   0.0108  -0.0229   0.0000   0.0000   0.0000
 252 C_c :3d1-   0.0000  -0.0107   0.0000  -0.0000   0.0290   0.0055  -0.0719
 253 C_c :3d0    0.0035   0.0000   0.0113  -0.0150   0.0000  -0.0000  -0.0000
 254 C_c :3d1+  -0.0000  -0.0160  -0.0000   0.0000  -0.0001  -0.0284   0.0624
 255 C_c :3d2+   0.0208  -0.0000   0.0046  -0.0030   0.0000  -0.0000   0.0000
 256 C_c :3d2-   0.0113   0.0000   0.0112   0.0082   0.0000   0.0000   0.0000
 257 C_c :3d1-  -0.0000   0.0359  -0.0000   0.0000   0.0135   0.0033  -0.0546
 259 C_c :3d1+   0.0000   0.0047   0.0000  -0.0000  -0.0149  -0.0172  -0.0039
 260 C_c :3d2+  -0.0158   0.0000  -0.0160  -0.0093   0.0000   0.0000  -0.0000
 275 C_c :4f3-  -0.0151  -0.0000  -0.0058   0.0029  -0.0000  -0.0000  -0.0000
 276 C_c :4f2-   0.0000   0.0011  -0.0000  -0.0000  -0.0165  -0.0017   0.0132
 278 C_c :4f0   -0.0000  -0.0016  -0.0000   0.0000  -0.0116  -0.0030   0.0224
 280 C_c :4f2+  -0.0000  -0.0017   0.0000   0.0000  -0.0114  -0.0032   0.0356
 281 C_c :4f3+   0.0119  -0.0000  -0.0058   0.0033  -0.0000  -0.0000  -0.0000
 282 C_c :4f3-  -0.0152   0.0000  -0.0008  -0.0080   0.0000   0.0000  -0.0000
 283 C_c :4f2-  -0.0000   0.0469  -0.0000   0.0000   0.0023   0.0168   0.0136
 285 C_c :4f0   -0.0000  -0.0004  -0.0000   0.0000  -0.0202  -0.0010   0.0036
 287 C_c :4f2+  -0.0000  -0.0160  -0.0000   0.0000  -0.0468  -0.0110  -0.0130
 288 C_c :4f3+   0.0161   0.0000  -0.0041   0.0120   0.0000   0.0000  -0.0000
 315 C_c :5g4+  -0.0118  -0.0000   0.0036  -0.0036  -0.0000  -0.0000   0.0000
 317 C_d :1s     0.0669   0.0000   0.0051  -0.0002   0.0000   0.0000  -0.0000
 319 C_d :1s     0.0920   0.0000   0.0117  -0.0102   0.0000   0.0000  -0.0000
 321 C_d :1s    -0.0107   0.0000   0.0096   0.0155   0.0000   0.0000  -0.0000
 322 C_d :1s    -0.0180   0.0000   0.0071  -0.0197  -0.0000  -0.0000  -0.0000
 323 C_d :2px    0.3661   0.0000   0.0091  -0.0003   0.0000   0.0000  -0.0000
 324 C_d :2py   -0.0562   0.0000  -0.0135   0.0008   0.0000   0.0000  -0.0000
 325 C_d :2pz    0.0000  -0.1443   0.0000   0.0000  -0.3225  -0.0292   0.2629
 329 C_d :2px    0.0313   0.0000   0.0036  -0.0009   0.0000   0.0000  -0.0000
 330 C_d :2py   -0.0107  -0.0000   0.0024   0.0024   0.0000   0.0000  -0.0000
 331 C_d :2pz    0.0000  -0.0111   0.0000   0.0000  -0.0273  -0.0033   0.0230
 332 C_d :2px   -0.0386   0.0000   0.0307  -0.0116   0.0000   0.0000  -0.0000
 333 C_d :2py    0.0172   0.0000  -0.0090  -0.0012   0.0000   0.0000   0.0000
 334 C_d :2pz    0.0000  -0.0031   0.0000   0.0000  -0.0056   0.0021  -0.0345
 335 C_d :2px   -0.0196   0.0000  -0.0040  -0.0239   0.0000   0.0000  -0.0000
 337 C_d :2pz    0.0000  -0.0001   0.0000  -0.0000   0.0434  -0.0271  -0.0380
 338 C_d :2px    0.0057  -0.0000  -0.0308   0.0104  -0.0000   0.0000   0.0000
 339 C_d :2py   -0.0172  -0.0000  -0.0135   0.0115  -0.0000   0.0000  -0.0000
 340 C_d :2pz    0.0000   0.0010   0.0000  -0.0000  -0.0423  -0.0177   0.0354
 346 C_d :3d2-  -0.0120  -0.0000  -0.0006   0.0001  -0.0000  -0.0000   0.0000
 350 C_d :3d2+  -0.0148  -0.0000   0.0000   0.0001  -0.0000  -0.0000   0.0000
 351 C_d :3d2-   0.0332   0.0000  -0.0042   0.0028   0.0000   0.0000  -0.0000
 352 C_d :3d1-  -0.0000   0.0006  -0.0000   0.0000   0.0154  -0.0042   0.0354
 353 C_d :3d0    0.0135  -0.0000   0.0032  -0.0026   0.0000   0.0000  -0.0000
 354 C_d :3d1+   0.0000  -0.0118   0.0000  -0.0000  -0.0296  -0.0035   0.0190
 355 C_d :3d2+   0.0708   0.0000  -0.0044   0.0026   0.0000   0.0000  -0.0000
 356 C_d :3d2-   0.0143   0.0000   0.0024  -0.0076   0.0000   0.0000  -0.0000
 357 C_d :3d1-   0.0000  -0.0405   0.0000  -0.0000   0.0052  -0.0226  -0.0386
 358 C_d :3d0    0.0109  -0.0000   0.0009   0.0215  -0.0000   0.0000   0.0000
 359 C_d :3d1+  -0.0000   0.0582  -0.0000   0.0000   0.0196   0.0076  -0.0070
 360 C_d :3d2+   0.0232  -0.0000   0.0123   0.0101   0.0000   0.0000   0.0000
 362 C_d :3d1-  -0.0000   0.0104   0.0000   0.0000   0.0012  -0.0235   0.0090
 363 C_d :3d0   -0.0017  -0.0000   0.0011   0.0195  -0.0000  -0.0000  -0.0000
 364 C_d :3d1+  -0.0000   0.0002  -0.0000   0.0000   0.0514   0.0039  -0.0371
 365 C_d :3d2+   0.0120   0.0000   0.0097   0.0218   0.0000   0.0000  -0.0000
 381 C_d :4f2-  -0.0000  -0.0016  -0.0000   0.0000  -0.0041  -0.0023   0.0272
 383 C_d :4f0    0.0000  -0.0075  -0.0000  -0.0000  -0.0229  -0.0016   0.0208
 385 C_d :4f2+   0.0000  -0.0137   0.0000  -0.0000  -0.0418  -0.0059   0.0359
 386 C_d :4f3+   0.0117   0.0000  -0.0034   0.0052   0.0000   0.0000  -0.0000
 387 C_d :4f3-   0.0131   0.0000  -0.0040   0.0194   0.0000   0.0000  -0.0000
 388 C_d :4f2-  -0.0000  -0.0193  -0.0000   0.0000  -0.0001   0.0172  -0.0280
 389 C_d :4f1-  -0.0039  -0.0000  -0.0132   0.0040  -0.0000  -0.0000   0.0000
 390 C_d :4f0    0.0000  -0.0068  -0.0000  -0.0000  -0.0244  -0.0018   0.0116
 392 C_d :4f2+  -0.0000   0.0044  -0.0000   0.0000   0.0039   0.0018  -0.0114
 393 C_d :4f3+  -0.0022   0.0000   0.0047   0.0201  -0.0000  -0.0000  -0.0000
 413 C_d :5g3-   0.0000  -0.0008  -0.0000  -0.0000  -0.0026  -0.0012   0.0123
 419 C_d :5g3+  -0.0000  -0.0032  -0.0000  -0.0000  -0.0131  -0.0021   0.0099
 422 C_e :1s     0.0793   0.0000  -0.0040   0.0007   0.0000   0.0000  -0.0000
 424 C_e :1s     0.1117   0.0000  -0.0175   0.0059   0.0000   0.0000  -0.0000
 425 C_e :1s    -0.0016   0.0000   0.0139   0.0007   0.0000   0.0000  -0.0000
 426 C_e :1s    -0.0216  -0.0000   0.0303   0.0028   0.0000   0.0000  -0.0000
 427 C_e :1s    -0.0394  -0.0000   0.0288  -0.0177  -0.0000  -0.0000   0.0000
 428 C_e :2px   -0.3643  -0.0000  -0.0068  -0.0005  -0.0000  -0.0000   0.0000
 429 C_e :2py    0.0529   0.0000   0.0189  -0.0020   0.0000  -0.0000  -0.0000
 430 C_e :2pz   -0.0000  -0.2089  -0.0000   0.0000  -0.3170  -0.0084   0.0184
 434 C_e :2px   -0.0332  -0.0000   0.0015  -0.0013  -0.0000  -0.0000   0.0000
 435 C_e :2py    0.0038   0.0000  -0.0030   0.0139   0.0000   0.0000  -0.0000
 436 C_e :2pz   -0.0000  -0.0189  -0.0000  -0.0000  -0.0356  -0.0010   0.0052
 437 C_e :2px    0.0268  -0.0000   0.0019  -0.0295  -0.0000  -0.0000   0.0000
 438 C_e :2py   -0.0064  -0.0000   0.0014  -0.0254  -0.0000   0.0000  -0.0000
 439 C_e :2pz   -0.0000  -0.0329  -0.0000   0.0000  -0.0160  -0.0165  -0.0257
 440 C_e :2px    0.0171  -0.0000   0.0100  -0.0188  -0.0000  -0.0000   0.0000
 442 C_e :2pz   -0.0000   0.0069  -0.0000   0.0000  -0.0289   0.0365  -0.0036
 443 C_e :2px   -0.0060   0.0000  -0.0344  -0.0157  -0.0000  -0.0000  -0.0000
 444 C_e :2py   -0.0038  -0.0000  -0.0047   0.0100  -0.0000  -0.0000   0.0000
 445 C_e :2pz    0.0000   0.0183  -0.0000  -0.0000   0.0147   0.0366  -0.1014
 451 C_e :3d2-  -0.0129   0.0000  -0.0009   0.0000   0.0000   0.0000   0.0000
 455 C_e :3d2+  -0.0157  -0.0000   0.0000   0.0001  -0.0000  -0.0000   0.0000
 456 C_e :3d2-   0.0400   0.0000   0.0067   0.0022   0.0000   0.0000  -0.0000
 457 C_e :3d1-  -0.0000   0.0128  -0.0000   0.0000   0.0127  -0.0010   0.0443
 458 C_e :3d0    0.0194   0.0000  -0.0054   0.0038   0.0000   0.0000  -0.0000
 459 C_e :3d1+   0.0000   0.0137   0.0000  -0.0000   0.0277  -0.0000  -0.0167
 460 C_e :3d2+   0.0691   0.0000   0.0086  -0.0092   0.0000   0.0000  -0.0000
 461 C_e :3d2-   0.0120  -0.0000  -0.0008  -0.0130  -0.0000   0.0000   0.0000
 462 C_e :3d1-   0.0000  -0.0141  -0.0000  -0.0000   0.0129  -0.0079  -0.0293
 463 C_e :3d0    0.0270  -0.0000  -0.0073   0.0114  -0.0000  -0.0000   0.0000
 464 C_e :3d1+   0.0000  -0.0199  -0.0000  -0.0000  -0.0317  -0.0006   0.0163
 465 C_e :3d2+   0.0356   0.0000   0.0128  -0.0142   0.0000   0.0000   0.0000
 467 C_e :3d1-  -0.0000   0.0176  -0.0000   0.0000  -0.0305  -0.0015   0.0320
 468 C_e :3d0   -0.0031   0.0000   0.0019  -0.0270   0.0000   0.0000   0.0000
 469 C_e :3d1+   0.0000  -0.0022   0.0000  -0.0000  -0.0288   0.0121   0.0175
 486 C_e :4f2-   0.0000  -0.0075   0.0000   0.0000  -0.0235   0.0026  -0.0142
 488 C_e :4f0    0.0000  -0.0117   0.0000  -0.0000  -0.0276   0.0007   0.0039
 490 C_e :4f2+   0.0000  -0.0207   0.0000  -0.0000  -0.0431  -0.0026   0.0214
 492 C_e :4f3-  -0.0138   0.0000  -0.0078  -0.0140  -0.0000   0.0000  -0.0000
 493 C_e :4f2-   0.0000   0.0476  -0.0000  -0.0000  -0.0176   0.0149   0.0410
 494 C_e :4f1-  -0.0001   0.0000  -0.0178   0.0008  -0.0000  -0.0000   0.0000
 495 C_e :4f0    0.0000  -0.0141   0.0000   0.0000  -0.0232  -0.0041   0.0028
 497 C_e :4f2+  -0.0000  -0.0189  -0.0000   0.0000   0.0214  -0.0067  -0.0152
 518 C_e :5g3-  -0.0000   0.0025  -0.0000  -0.0000   0.0119  -0.0022   0.0053
 524 C_e :5g3+  -0.0000   0.0078  -0.0000   0.0000   0.0128   0.0011  -0.0098
 527 C_f :1s     0.0507   0.0000   0.0094  -0.0009   0.0000   0.0000  -0.0000
 529 C_f :1s     0.1058   0.0000  -0.0033  -0.0076   0.0000   0.0000  -0.0000
 531 C_f :1s    -0.0216   0.0000   0.0147   0.0062   0.0000   0.0000   0.0000
 532 C_f :1s    -0.0449  -0.0000  -0.0064  -0.0150  -0.0000  -0.0000   0.0000
 533 C_f :2px    0.3093   0.0000   0.0182   0.0003   0.0000   0.0000  -0.0000
 534 C_f :2py   -0.0136   0.0000  -0.0267   0.0025   0.0000   0.0000  -0.0000
 535 C_f :2pz   -0.0000  -0.2553  -0.0000   0.0000  -0.2666   0.0088  -0.1566
 539 C_f :2px    0.0287   0.0000  -0.0005  -0.0020   0.0000   0.0000  -0.0000
 541 C_f :2pz   -0.0000  -0.0231  -0.0000   0.0000  -0.0279   0.0036  -0.0170
 542 C_f :2px   -0.0296  -0.0000   0.0408  -0.0125   0.0000   0.0000  -0.0000
 543 C_f :2py    0.0019   0.0000  -0.0045   0.0246   0.0000   0.0000   0.0000
 544 C_f :2pz   -0.0000  -0.0239  -0.0000   0.0000   0.0122  -0.0034   0.0317
 545 C_f :2px   -0.0148   0.0000  -0.0081  -0.0037   0.0000   0.0000  -0.0000
 546 C_f :2py   -0.0058  -0.0000   0.0016   0.0118   0.0000   0.0000  -0.0000
 547 C_f :2pz   -0.0000  -0.0009  -0.0000   0.0000   0.0224  -0.0484   0.0358
 548 C_f :2px   -0.0008   0.0000   0.0509   0.0048   0.0000  -0.0000  -0.0000
 549 C_f :2py    0.0120   0.0000   0.0182   0.0005   0.0000  -0.0000   0.0000
 550 C_f :2pz   -0.0000  -0.0034  -0.0000   0.0000   0.0582   0.0016  -0.0141
 556 C_f :3d2-  -0.0123  -0.0000  -0.0013   0.0002   0.0000   0.0000   0.0000
 560 C_f :3d2+  -0.0135  -0.0000   0.0005  -0.0002  -0.0000  -0.0000   0.0000
 561 C_f :3d2-   0.0394   0.0000  -0.0017   0.0071   0.0000   0.0000  -0.0000
 562 C_f :3d1-   0.0000  -0.0014   0.0000  -0.0000  -0.0193  -0.0007   0.0331
 563 C_f :3d0    0.0167   0.0000   0.0012  -0.0012   0.0000   0.0000  -0.0000
 564 C_f :3d1+  -0.0000  -0.0202  -0.0000   0.0000  -0.0204   0.0035  -0.0249
 565 C_f :3d2+   0.0650   0.0000  -0.0028  -0.0136   0.0000   0.0000  -0.0000
 566 C_f :3d2-   0.0143   0.0000   0.0175   0.0015   0.0000   0.0000  -0.0000
 567 C_f :3d1-   0.0000  -0.0281   0.0000  -0.0000   0.0561  -0.0137   0.0110
 568 C_f :3d0    0.0203   0.0000   0.0101   0.0162   0.0000   0.0000  -0.0000
 569 C_f :3d1+  -0.0000   0.0503  -0.0000   0.0000   0.0412  -0.0011   0.0242
 570 C_f :3d2+   0.0263   0.0000  -0.0098   0.0031   0.0000   0.0000  -0.0000
 571 C_f :3d2-   0.0115  -0.0000   0.0235   0.0480   0.0000  -0.0000   0.0000
 572 C_f :3d1-  -0.0000   0.0276  -0.0000   0.0000  -0.0395   0.0012  -0.0004
 573 C_f :3d0    0.0086   0.0000  -0.0122   0.0082   0.0000   0.0000  -0.0000
 574 C_f :3d1+   0.0000  -0.0110   0.0000  -0.0000   0.0151  -0.0143   0.0032
 575 C_f :3d2+  -0.0016   0.0000  -0.0175   0.0028   0.0000   0.0000  -0.0000
 590 C_f :4f3-   0.0199   0.0000  -0.0031   0.0083  -0.0000   0.0000  -0.0000
 591 C_f :4f2-   0.0000  -0.0093   0.0000  -0.0000  -0.0216   0.0029   0.0050
 593 C_f :4f0    0.0000  -0.0175   0.0000  -0.0000  -0.0248   0.0014  -0.0149
 595 C_f :4f2+   0.0000  -0.0266  -0.0000  -0.0000  -0.0354   0.0049  -0.0349
 597 C_f :4f3-   0.0184   0.0000   0.0074   0.0393   0.0000  -0.0000   0.0000
 598 C_f :4f2-   0.0000  -0.0128   0.0000  -0.0000   0.0385   0.0255  -0.0098
 599 C_f :4f1-  -0.0128   0.0000  -0.0179  -0.0034  -0.0000  -0.0000  -0.0000
 600 C_f :4f0    0.0000  -0.0154  -0.0000  -0.0000  -0.0075   0.0055  -0.0063
 601 C_f :4f1+   0.0064  -0.0000   0.0115  -0.0028   0.0000   0.0000  -0.0000
 602 C_f :4f2+   0.0000  -0.0153   0.0000  -0.0000  -0.0077  -0.0215   0.0408
 603 C_f :4f3+  -0.0157  -0.0000   0.0214  -0.0140  -0.0000  -0.0000   0.0000
 622 C_f :5g4-   0.0137   0.0000  -0.0035   0.0070  -0.0000  -0.0000   0.0000
 629 C_f :5g3+   0.0000  -0.0067  -0.0000  -0.0000  -0.0102   0.0022  -0.0153
 632 C_g :1s     0.0726   0.0000  -0.0089  -0.0004   0.0000   0.0000  -0.0000
 634 C_g :1s     0.0659   0.0000  -0.0035  -0.0348   0.0000   0.0000  -0.0000
 635 C_g :1s     0.0045   0.0000   0.0218  -0.0005   0.0000   0.0000   0.0000
 636 C_g :1s    -0.0143   0.0000   0.0136   0.0068   0.0000   0.0000   0.0000
 637 C_g :1s    -0.0226  -0.0000   0.0107   0.0116  -0.0000  -0.0000   0.0000
 638 C_g :2px   -0.2524  -0.0000  -0.0134  -0.0003  -0.0000  -0.0000   0.0000
 639 C_g :2py    0.0870  -0.0000   0.0384  -0.0017  -0.0000  -0.0000   0.0000
 640 C_g :2pz   -0.0000  -0.3025   0.0000   0.0000  -0.1089   0.0282  -0.3035
 644 C_g :2px   -0.0248  -0.0000   0.0023   0.0027  -0.0000  -0.0000   0.0000
 645 C_g :2py    0.0152  -0.0000  -0.0038   0.0248  -0.0000  -0.0000   0.0000
 646 C_g :2pz   -0.0000  -0.0289  -0.0000   0.0000  -0.0124   0.0010  -0.0333
 647 C_g :2px    0.0297   0.0000   0.0113   0.0007   0.0000   0.0000  -0.0000
 648 C_g :2py   -0.0174  -0.0000   0.0067  -0.0275  -0.0000  -0.0000  -0.0000
 649 C_g :2pz   -0.0000  -0.0561   0.0000   0.0000   0.0137  -0.0086   0.0480
 650 C_g :2px    0.0110  -0.0000  -0.0489   0.0021  -0.0000  -0.0000   0.0000
 652 C_g :2pz    0.0000   0.0132   0.0000   0.0000   0.0199   0.0138  -0.0068
 653 C_g :2px    0.0023  -0.0000   0.0025  -0.0190   0.0000   0.0000   0.0000
 654 C_g :2py    0.0091  -0.0000  -0.0067  -0.0100   0.0000   0.0000  -0.0000
 655 C_g :2pz    0.0000  -0.0298   0.0000  -0.0000  -0.0447  -0.0248   0.1507
 666 C_g :3d2-   0.0273   0.0000   0.0066  -0.0079   0.0000   0.0000  -0.0000
 667 C_g :3d1-   0.0000   0.0117   0.0000  -0.0000  -0.0269   0.0027   0.0167
 669 C_g :3d1+  -0.0000   0.0215  -0.0000   0.0000   0.0165  -0.0013   0.0279
 670 C_g :3d2+   0.0497   0.0000  -0.0045  -0.0136   0.0000   0.0000  -0.0000
 671 C_g :3d2-   0.0083   0.0000  -0.0333   0.0091   0.0000   0.0000  -0.0000
 672 C_g :3d1-   0.0000  -0.0077   0.0000  -0.0000   0.0206   0.0156  -0.0155
 673 C_g :3d0    0.0103   0.0000   0.0071  -0.0107   0.0000   0.0000   0.0000
 674 C_g :3d1+  -0.0000  -0.0185  -0.0000   0.0000  -0.0314   0.0297  -0.0709
 675 C_g :3d2+   0.0193  -0.0000  -0.0033   0.0169   0.0000   0.0000  -0.0000
 676 C_g :3d2-  -0.0029   0.0000  -0.0023   0.0161   0.0000   0.0000  -0.0000
 677 C_g :3d1-   0.0000   0.0103   0.0000  -0.0000  -0.0300  -0.0050   0.0126
 678 C_g :3d0   -0.0015  -0.0000   0.0174   0.0304   0.0000   0.0000  -0.0000
 679 C_g :3d1+  -0.0000  -0.0119  -0.0000   0.0000   0.0135  -0.0002  -0.0286
 680 C_g :3d2+  -0.0037   0.0000   0.0052  -0.0265   0.0000   0.0000   0.0000
 696 C_g :4f2-  -0.0000  -0.0117  -0.0000   0.0000   0.0032   0.0010  -0.0291
 697 C_g :4f1-   0.0108   0.0000  -0.0076   0.0098   0.0000   0.0000  -0.0000
 698 C_g :4f0    0.0000  -0.0191   0.0000  -0.0000  -0.0099   0.0022  -0.0294
 700 C_g :4f2+   0.0000  -0.0298   0.0000  -0.0000  -0.0217   0.0060  -0.0492
 701 C_g :4f3+  -0.0150  -0.0000   0.0080  -0.0111  -0.0000  -0.0000   0.0000
 702 C_g :4f3-  -0.0044  -0.0000   0.0249  -0.0292  -0.0000   0.0000  -0.0000
 703 C_g :4f2-  -0.0000   0.0217  -0.0000   0.0000  -0.0419   0.0282   0.0365
 704 C_g :4f1-  -0.0075   0.0000  -0.0271  -0.0012  -0.0000  -0.0000   0.0000
 705 C_g :4f0   -0.0000  -0.0261  -0.0000   0.0000  -0.0044  -0.0048  -0.0002
 707 C_g :4f2+   0.0000  -0.0448   0.0000  -0.0000   0.0387  -0.0166   0.0316
 708 C_g :4f3+  -0.0101  -0.0000  -0.0068   0.0202  -0.0000  -0.0000   0.0000
 728 C_g :5g3-   0.0000   0.0047   0.0000  -0.0000   0.0004   0.0002   0.0137
 734 C_g :5g3+  -0.0000   0.0098   0.0000   0.0000   0.0071   0.0001   0.0130
 737 C_h :1s     0.0181   0.0000   0.0173  -0.0059   0.0000   0.0000  -0.0000
 739 C_h :1s     0.0517   0.0000  -0.0294   0.0000   0.0000   0.0000  -0.0000
 741 C_h :1s    -0.0111   0.0000  -0.0035  -0.0061   0.0000   0.0000  -0.0000
 742 C_h :1s    -0.0105  -0.0000  -0.0156  -0.0092  -0.0000  -0.0000   0.0000
 743 C_h :2px    0.1413   0.0000   0.0329  -0.0096   0.0000   0.0000  -0.0000
 744 C_h :2py   -0.0181   0.0000  -0.0517   0.0082   0.0000   0.0000  -0.0000
 745 C_h :2pz    0.0000  -0.3301  -0.0000  -0.0000   0.0179   0.0314  -0.2874
 749 C_h :2px    0.0140  -0.0000  -0.0040  -0.0020   0.0000   0.0000  -0.0000
 750 C_h :2py    0.0139   0.0000   0.0018   0.0134   0.0000   0.0000  -0.0000
 751 C_h :2pz    0.0000  -0.0297   0.0000  -0.0000   0.0058   0.0027  -0.0284
 752 C_h :2px   -0.0086  -0.0000   0.0221   0.0149   0.0000   0.0000   0.0000
 753 C_h :2py    0.0051  -0.0000   0.0041   0.0414   0.0000  -0.0000   0.0000
 754 C_h :2pz    0.0000  -0.0325  -0.0000  -0.0000  -0.0148   0.0522   0.0049
 755 C_h :2px   -0.0053  -0.0000  -0.0057   0.0464   0.0000   0.0000  -0.0000
 757 C_h :2pz    0.0000   0.0179  -0.0000  -0.0000  -0.0364   0.0523   0.0069
 758 C_h :2px   -0.0011  -0.0000  -0.0452  -0.0098  -0.0000   0.0000   0.0000
 759 C_h :2py    0.0019   0.0000  -0.0313   0.0124  -0.0000   0.0000  -0.0000
 760 C_h :2pz    0.0000   0.0073   0.0000  -0.0000  -0.0411   0.0153  -0.0340
 771 C_h :3d2-   0.0232   0.0000   0.0008   0.0002   0.0000   0.0000  -0.0000
 772 C_h :3d1-   0.0000  -0.0089   0.0000  -0.0000  -0.0285   0.0059  -0.0299
 774 C_h :3d1+   0.0000  -0.0246   0.0000  -0.0000   0.0115   0.0016  -0.0211
 775 C_h :3d2+   0.0302   0.0000  -0.0145  -0.0195   0.0000   0.0000  -0.0000
 776 C_h :3d2-  -0.0007  -0.0000   0.0232   0.0000  -0.0000  -0.0000   0.0000
 777 C_h :3d1-   0.0000   0.0042   0.0000  -0.0000   0.0616   0.0308   0.0226
 778 C_h :3d0    0.0034   0.0000   0.0198  -0.0141  -0.0000  -0.0000  -0.0000
 779 C_h :3d1+   0.0000   0.0269   0.0000  -0.0000  -0.0139   0.0483   0.0065
 780 C_h :3d2+   0.0076   0.0000   0.0005   0.0119  -0.0000   0.0000  -0.0000
 781 C_h :3d2-  -0.0037   0.0000  -0.0005  -0.0325   0.0000   0.0000  -0.0000
 782 C_h :3d1-  -0.0000   0.0141  -0.0000   0.0000  -0.0378   0.0176   0.0077
 783 C_h :3d0   -0.0011  -0.0000   0.0130  -0.0285   0.0000   0.0000   0.0000
 784 C_h :3d1+  -0.0000   0.0222  -0.0000   0.0000   0.0019   0.0084   0.0443
 785 C_h :3d2+  -0.0142   0.0000   0.0061  -0.0052   0.0000   0.0000  -0.0000
 800 C_h :4f3-   0.0197  -0.0000   0.0158  -0.0047   0.0000   0.0000  -0.0000
 801 C_h :4f2-   0.0000  -0.0144   0.0000  -0.0000  -0.0044   0.0031  -0.0332
 803 C_h :4f0   -0.0000  -0.0226  -0.0000   0.0000   0.0054   0.0007  -0.0245
 805 C_h :4f2+  -0.0000  -0.0345   0.0000   0.0000   0.0152  -0.0025  -0.0360
 806 C_h :4f3+  -0.0150   0.0000  -0.0076  -0.0186  -0.0000   0.0000   0.0000
 807 C_h :4f3-   0.0120   0.0000   0.0259   0.0003   0.0000   0.0000   0.0000
 808 C_h :4f2-   0.0000  -0.0004   0.0000  -0.0000   0.0449   0.0141   0.0449
 809 C_h :4f1-  -0.0122  -0.0000  -0.0242  -0.0011  -0.0000  -0.0000  -0.0000
 810 C_h :4f0    0.0000  -0.0263   0.0000   0.0000   0.0052   0.0121  -0.0140
 812 C_h :4f2+  -0.0000  -0.0276  -0.0000   0.0000  -0.0084  -0.0169   0.0337
 813 C_h :4f3+  -0.0207  -0.0000   0.0084  -0.0739   0.0000  -0.0000   0.0000
 832 C_h :5g4-   0.0101  -0.0000   0.0089  -0.0011  -0.0000  -0.0000   0.0000
 833 C_h :5g3-   0.0000  -0.0052   0.0000   0.0000  -0.0001   0.0033  -0.0155
 839 C_h :5g3+  -0.0000  -0.0106   0.0000   0.0000   0.0048  -0.0019  -0.0076
 840 C_h :5g4+  -0.0144  -0.0000  -0.0033  -0.0099  -0.0000  -0.0000   0.0000
 842 C_i :1s     0.0439   0.0000  -0.0225  -0.0089   0.0000   0.0000  -0.0000
 844 C_i :1s     0.0162   0.0000  -0.0118  -0.0378   0.0000   0.0000  -0.0000
 846 C_i :1s    -0.0053   0.0000   0.0093   0.0311   0.0000   0.0000  -0.0000
 847 C_i :1s     0.0184   0.0000  -0.0167   0.0297   0.0000  -0.0000   0.0000
 848 C_i :2px   -0.1062  -0.0000  -0.0189   0.0225  -0.0000  -0.0000   0.0000
 849 C_i :2py    0.0681  -0.0000   0.0840   0.0128  -0.0000   0.0000   0.0000
 850 C_i :2pz    0.0000  -0.3292   0.0000  -0.0000   0.1951   0.0152  -0.0588
 854 C_i :2px   -0.0102  -0.0000  -0.0113  -0.0005  -0.0000  -0.0000   0.0000
 855 C_i :2py    0.0082   0.0000   0.0097   0.0139   0.0000   0.0000  -0.0000
 856 C_i :2pz    0.0000  -0.0321   0.0000  -0.0000   0.0215  -0.0002  -0.0042
 857 C_i :2px    0.0048  -0.0000  -0.0130   0.0760  -0.0000  -0.0000  -0.0000
 858 C_i :2py   -0.0117   0.0000  -0.0152  -0.0024  -0.0000   0.0000  -0.0000
 859 C_i :2pz    0.0000  -0.0496   0.0000  -0.0000  -0.0122  -0.0403   0.0290
 860 C_i :2px    0.0127   0.0000  -0.0308  -0.0034  -0.0000  -0.0000   0.0000
 861 C_i :2py    0.0057  -0.0000  -0.0134   0.0171  -0.0000  -0.0000   0.0000
 862 C_i :2pz    0.0000   0.0003   0.0000  -0.0000   0.0170  -0.0425  -0.0170
 863 C_i :2px   -0.0010   0.0000   0.0359   0.0395  -0.0000  -0.0000  -0.0000
 864 C_i :2py    0.0056   0.0000   0.0082   0.0241   0.0000   0.0000  -0.0000
 865 C_i :2pz   -0.0000   0.0308  -0.0000   0.0000   0.0514  -0.0173  -0.1279
 876 C_i :3d2-   0.0182  -0.0000  -0.0030  -0.0069   0.0000   0.0000  -0.0000
 877 C_i :3d1-  -0.0000   0.0063  -0.0000   0.0000  -0.0201   0.0039  -0.0417
 878 C_i :3d0   -0.0001   0.0000   0.0022  -0.0115   0.0000   0.0000   0.0000
 879 C_i :3d1+  -0.0000   0.0266  -0.0000   0.0000  -0.0136  -0.0036   0.0143
 880 C_i :3d2+   0.0198   0.0000  -0.0329  -0.0044   0.0000   0.0000  -0.0000
 881 C_i :3d2-  -0.0110   0.0000  -0.0127   0.0207  -0.0000  -0.0000  -0.0000
 882 C_i :3d1-   0.0000  -0.0161   0.0000  -0.0000   0.0506  -0.0379   0.0421
 883 C_i :3d0   -0.0090  -0.0000   0.0237  -0.0045   0.0000  -0.0000   0.0000
 884 C_i :3d1+  -0.0000  -0.0199   0.0000   0.0000   0.0104  -0.0147  -0.0399
 885 C_i :3d2+   0.0039   0.0000   0.0080   0.0415   0.0000   0.0000  -0.0000
 886 C_i :3d2-   0.0071   0.0000   0.0441  -0.0110   0.0000   0.0000  -0.0000
 887 C_i :3d1-  -0.0000  -0.0052  -0.0000   0.0000  -0.0256  -0.0257  -0.0361
 888 C_i :3d0    0.0031   0.0000  -0.0212   0.0135   0.0000  -0.0000   0.0000
 889 C_i :3d1+   0.0000  -0.0227   0.0000  -0.0000   0.0181   0.0014  -0.0047
 890 C_i :3d2+  -0.0044   0.0000  -0.0258   0.0386   0.0000   0.0000  -0.0000
 906 C_i :4f2-  -0.0000  -0.0142  -0.0000   0.0000   0.0227   0.0009   0.0173
 908 C_i :4f0   -0.0000  -0.0206  -0.0000   0.0000   0.0187  -0.0001  -0.0052
[...]
2056 H_g :1s     0.0000  -0.1617  -0.0131  -0.2422   0.0697   0.0000
2057 H_g :1s    -0.0000   0.4460   0.1389  -1.1487   0.6163   0.0000
2058 H_g :1s    -0.0000  -6.3281  -6.1652   8.6693 -21.0714   0.0000
2065 H_g :2px   -0.0000  -0.0288   0.0065  -0.0086  -0.1672  -0.0000
2066 H_g :2py   -0.0000  -0.0367  -0.0310   0.0512  -0.0424  -0.0000
2068 H_g :2px    0.0000   0.4310   0.2350   1.1936   0.0194   0.0000
2069 H_g :2py   -0.0000   0.4011  -0.0166   0.8618   0.3595   0.0000
2070 H_g :2pz    0.7774   0.0000  -0.0000  -0.0000  -0.0000  -0.3589
2071 H_g :2px    0.0000  -1.2189   0.4224  -2.0950  -0.9802  -0.0000
2072 H_g :2py    0.0000   0.4670   0.3421  -2.3461  -0.7607  -0.0000
2073 H_g :2pz   -4.4571  -0.0000  -0.0000   0.0000   0.0000  -0.0587
2084 H_g :3d2-  -0.0000  -0.0384  -0.0049  -0.0058  -0.0667  -0.0000
2085 H_g :3d1-  -0.0080   0.0000   0.0000  -0.0000  -0.0000   0.0119
2086 H_g :3d0    0.0000  -0.0019   0.0226   0.0251  -0.0192  -0.0000
2087 H_g :3d1+   0.0267  -0.0000  -0.0000   0.0000   0.0000  -0.0054
2088 H_g :3d2+  -0.0000  -0.0134  -0.0035   0.0189  -0.0608  -0.0000
2089 H_g :3d2-   0.0000  -0.3663  -0.0377   1.8183   0.5389   0.0000
2090 H_g :3d1-  -0.8155  -0.0000  -0.0000   0.0000   0.0000   0.2024
2091 H_g :3d0    0.0000  -0.0058   0.2646   0.3216  -0.2672  -0.0000
2092 H_g :3d1+   0.4117   0.0000   0.0000  -0.0000  -0.0000  -0.0740
2093 H_g :3d2+   0.0000   0.2575   0.3039  -0.3596  -0.6340  -0.0000
2108 H_g :4f3-  -0.0000  -0.0684  -0.1032  -0.2738  -0.3533  -0.0000
2109 H_g :4f2-   0.1381   0.0000  -0.0000  -0.0000   0.0000  -0.0072
2110 H_g :4f1-  -0.0000  -0.0340  -0.0003  -0.1167  -0.1535  -0.0000
2111 H_g :4f0    0.2210   0.0000  -0.0000   0.0000  -0.0000  -0.0327
2112 H_g :4f1+  -0.0000  -0.0417  -0.0578  -0.0096  -0.0903   0.0000
2113 H_g :4f2+   0.1521   0.0000  -0.0000   0.0000  -0.0000  -0.0077
2114 H_g :4f3+  -0.0000  -0.1876  -0.0909  -0.0498  -0.1773   0.0000
2117 H_h :1s     0.0000  -0.2863  -0.3719  -0.0770   0.0675  -0.0000
2118 H_h :1s     0.0000  -0.4008   0.7090  -0.1763   0.8106   0.0000
2119 H_h :1s     0.0000  -0.2424   0.3133   1.9075   0.0747   0.0000
2120 H_h :1s     0.0000  -3.8213   5.1890  -8.0574  -4.1832   0.0000
2127 H_h :2px    0.0000  -0.0691  -0.0642  -0.0840   0.0514  -0.0000
2128 H_h :2py    0.0000  -0.0591  -0.0367  -0.0230  -0.0262   0.0000
2130 H_h :2px    0.0000   0.0302   0.2897   0.1261   0.0771   0.0000
2131 H_h :2py   -0.0000  -0.2296   0.4237  -0.9733   0.1247   0.0000
2132 H_h :2pz   -0.1986  -0.0000   0.0000   0.0000   0.0000   0.2688
2133 H_h :2px   -0.0000  -0.5591   0.1208   0.8568  -0.2852  -0.0000
2134 H_h :2py   -0.0000   1.0450  -0.8532  -1.3826   0.3569   0.0000
2135 H_h :2pz    0.4846   0.0000   0.0000  -0.0000   0.0000  -0.5460
2146 H_h :3d2-  -0.0000   0.0470   0.0053  -0.0335  -0.0216   0.0000
2148 H_h :3d0   -0.0000   0.0270   0.0122   0.0036   0.0074  -0.0000
2150 H_h :3d2+  -0.0000   0.0139  -0.0080   0.0234  -0.0443  -0.0000
2151 H_h :3d2-   0.0000   0.7310  -0.5253  -0.2643   0.8993  -0.0000
2152 H_h :3d1-   0.1237   0.0000   0.0000  -0.0000  -0.0000  -0.0332
2153 H_h :3d0    0.0000   0.0355  -0.1120   0.1509   0.0116  -0.0000
2154 H_h :3d1+  -0.0437  -0.0000  -0.0000   0.0000   0.0000  -0.0472
2155 H_h :3d2+   0.0000  -0.4288   0.0517   0.4909  -0.6854  -0.0000
2170 H_h :4f3-   0.0000   0.0770  -0.1217   0.0565   0.1405  -0.0000
2171 H_h :4f2-  -0.0248  -0.0000  -0.0000   0.0000  -0.0000  -0.0143
2172 H_h :4f1-   0.0000   0.0462  -0.0440   0.0832   0.0427  -0.0000
2173 H_h :4f0   -0.0455  -0.0000  -0.0000   0.0000  -0.0000   0.0083
2174 H_h :4f1+   0.0000   0.0000  -0.0037   0.0118   0.0199   0.0000
2175 H_h :4f2+  -0.0175  -0.0000  -0.0000   0.0000  -0.0000  -0.0032
2176 H_h :4f3+   0.0000  -0.0650  -0.0269   0.0835  -0.0474  -0.0000
2179 H_i :1s     0.0000  -0.1181  -0.0536  -1.1974   0.0711  -0.0000
2180 H_i :1s    -0.0000  -0.4782   0.6237  -0.1386   0.3463   0.0000
2181 H_i :1s    -0.0000  -0.2984   0.1380   0.8010   0.8424   0.0000
2182 H_i :1s    -0.0000   5.1508  -0.8416  -4.6457  19.8006  -0.0000
2186 H_i :2px    0.0000   0.0025  -0.0022   0.0113  -0.0039   0.0000
2189 H_i :2px   -0.0000   0.0270  -0.0521   0.2825  -0.1167  -0.0000
2190 H_i :2py   -0.0000  -0.0028   0.0226   0.0852  -0.0478   0.0000
2192 H_i :2px   -0.0000  -0.3199  -0.1624  -0.3147  -0.9665   0.0000
2193 H_i :2py    0.0000  -0.1176   0.6932   0.2999  -0.0809   0.0000
2194 H_i :2pz   -0.4658   0.0000  -0.0000  -0.0000   0.0000   0.0005
2195 H_i :2px    0.0000   0.7433   1.1429   2.8757  -0.2171   0.0000
2196 H_i :2py    0.0000   1.4425  -1.4266  -0.5437  -1.7636   0.0000
2197 H_i :2pz    5.1765   0.0000   0.0000  -0.0000  -0.0000   0.5377
2208 H_i :3d2-  -0.0000   0.0017  -0.0352  -0.0020   0.0404  -0.0000
2209 H_i :3d1-  -0.0146   0.0000   0.0000   0.0000  -0.0000   0.0035
2210 H_i :3d0   -0.0000   0.0156  -0.0280  -0.0156  -0.0269  -0.0000
2211 H_i :3d1+  -0.0171  -0.0000  -0.0000   0.0000   0.0000  -0.0027
2212 H_i :3d2+  -0.0000   0.0357  -0.0256   0.0029   0.0433  -0.0000
2213 H_i :3d2-   0.0000  -0.2445   0.2530   2.3138  -0.5006   0.0000
2214 H_i :3d1-  -1.0270  -0.0000  -0.0000   0.0000   0.0000   0.2092
2215 H_i :3d0    0.0000   0.0137   0.1112   0.6780  -0.8944   0.0000
2216 H_i :3d1+   0.0692   0.0000   0.0000  -0.0000  -0.0000  -0.0609
2217 H_i :3d2+  -0.0000  -0.0433  -0.0727  -0.4421  -0.8407  -0.0000
2232 H_i :4f3-   0.0000   0.0670   0.0767   0.0733   0.1919  -0.0000
2234 H_i :4f1-  -0.0000  -0.0357   0.0167  -0.1548   0.0541  -0.0000
2235 H_i :4f0   -0.1595  -0.0000  -0.0000   0.0000   0.0000   0.0018
2236 H_i :4f1+   0.0000   0.0286   0.0606   0.1301   0.0866  -0.0000
2237 H_i :4f2+  -0.1496  -0.0000   0.0000   0.0000   0.0000   0.0110
2238 H_i :4f3+   0.0000   0.0775   0.1965   0.3977   0.1786  -0.0000
2241 H_j :1s    -0.0000   0.4936   0.5712   0.1709   0.2825   0.0000
2242 H_j :1s     0.0000  -0.0091   0.6178  -0.3020   0.9957  -0.0000
2243 H_j :1s     0.0000  -1.1097   1.4607   1.7268   2.4383  -0.0000
2244 H_j :1s     0.0000   0.5076   8.9448   3.7676  12.4372   0.0000
2251 H_j :2px   -0.0000   0.1131   0.1147  -0.0003   0.0724   0.0000
2252 H_j :2py   -0.0000  -0.0178   0.0609   0.0196   0.0015  -0.0000
2254 H_j :2px   -0.0000  -0.5288   0.4016   0.2641  -0.2561   0.0000
2255 H_j :2py   -0.0000  -0.1434  -0.7891   0.2212  -0.4771   0.0000
2256 H_j :2pz    0.5542   0.0000   0.0000   0.0000  -0.0000  -0.4545
2257 H_j :2px   -0.0000  -0.1055   0.2414   1.6322   0.1359   0.0000
2258 H_j :2py    0.0000   0.3732  -1.7899  -1.0612  -4.4869  -0.0000
2259 H_j :2pz    1.8953   0.0000  -0.0000   0.0000  -0.0000   0.5030
2270 H_j :3d2-  -0.0000  -0.0123  -0.0371  -0.0480  -0.0113  -0.0000
2272 H_j :3d0    0.0000  -0.0093   0.0014   0.0183   0.0395   0.0000
2274 H_j :3d2+   0.0000  -0.0207  -0.0265   0.1012   0.0143  -0.0000
2275 H_j :3d2-   0.0000   0.3883  -0.5747  -0.1556   0.4321   0.0000
2276 H_j :3d1-   0.0908   0.0000   0.0000  -0.0000  -0.0000  -0.0232
2277 H_j :3d0   -0.0000   0.2135   0.0310   0.0545   0.3055   0.0000
2278 H_j :3d1+  -0.0747  -0.0000  -0.0000   0.0000   0.0000   0.0603
2279 H_j :3d2+  -0.0000  -0.1091   0.2404   0.3133   0.0912   0.0000
2294 H_j :4f3-   0.0000   0.0658   0.0051   0.0607   0.1059   0.0000
2296 H_j :4f1-   0.0000   0.0886  -0.0491   0.2032   0.0501  -0.0000
2297 H_j :4f0    0.0267   0.0000   0.0000  -0.0000   0.0000  -0.0166
2298 H_j :4f1+  -0.0000  -0.0292   0.0453  -0.0628   0.0085   0.0000
2299 H_j :4f2+  -0.0200   0.0000   0.0000  -0.0000   0.0000   0.0228
2300 H_j :4f3+  -0.0000  -0.0683   0.0851  -0.0797   0.0380   0.0000
2303 H_k :1s     0.0000  -0.4931   0.0034   0.2337   0.0806  -0.0000
2304 H_k :1s    -0.0000  -0.8010   0.3357   0.5859   0.9960   0.0000
2305 H_k :1s    -0.0000  -0.6927   1.3721   1.9141   1.2071   0.0000
2306 H_k :1s     0.0000   0.3941   8.4249  -4.0676 -11.9506   0.0000
2313 H_k :2px   -0.0000   0.0843   0.0039   0.0287  -0.0452   0.0000
2314 H_k :2py    0.0000   0.0338   0.0161   0.0412  -0.0176  -0.0000
2316 H_k :2px   -0.0000  -0.5629   0.2988   1.6352   0.2980   0.0000
2317 H_k :2py    0.0000   0.3250  -0.4203   0.4541  -0.7915  -0.0000
2318 H_k :2pz    0.0281  -0.0000  -0.0000   0.0000   0.0000   0.2712
2319 H_k :2px   -0.0000  -0.3402  -1.3293  -0.1171  -0.7235   0.0000
2320 H_k :2py    0.0000  -0.8059   0.4398  -4.0594  -1.0852  -0.0000
2321 H_k :2pz   -1.8276   0.0000   0.0000  -0.0000   0.0000  -1.3823
2332 H_k :3d2-   0.0000  -0.0392   0.0189   0.0040  -0.0540   0.0000
2334 H_k :3d0    0.0000   0.0062   0.0029  -0.0060  -0.0448  -0.0000
2335 H_k :3d1+   0.0105  -0.0000  -0.0000   0.0000   0.0000   0.0071
2336 H_k :3d2+   0.0000   0.0409  -0.0441  -0.0618  -0.0535  -0.0000
2337 H_k :3d2-   0.0000  -0.1249  -0.0481   2.2991  -1.2863   0.0000
2338 H_k :3d1-  -0.2149  -0.0000  -0.0000  -0.0000   0.0000   0.1085
2339 H_k :3d0   -0.0000  -0.1531  -0.0282   0.3589  -0.6289   0.0000
2340 H_k :3d1+   0.0273  -0.0000  -0.0000   0.0000  -0.0000   0.0479
2341 H_k :3d2+  -0.0000  -0.2507   0.0897  -0.4293  -0.0401   0.0000
2356 H_k :4f3-  -0.0000  -0.0733   0.0251  -0.2707  -0.0825   0.0000
2357 H_k :4f2-  -0.0127   0.0000   0.0000  -0.0000  -0.0000   0.0207
2358 H_k :4f1-  -0.0000  -0.1445   0.0773  -0.1525  -0.0877   0.0000
2359 H_k :4f0    0.0238   0.0000   0.0000  -0.0000   0.0000   0.0335
2360 H_k :4f1+   0.0000   0.0220  -0.0525   0.0295   0.0015  -0.0000
2361 H_k :4f2+   0.0292   0.0000   0.0000  -0.0000  -0.0000   0.0112
2362 H_k :4f3+   0.0000   0.0944  -0.1389  -0.0510  -0.0974  -0.0000
2365 H_l :1s     0.0000  -0.7688   0.3594   0.1016   0.0064  -0.0000
2366 H_l :1s     0.0000  -0.1760   0.8629   0.7182   1.6741  -0.0000
2367 H_l :1s     0.0000  -1.3072   1.0707   4.7237  -1.3962  -0.0000
2368 H_l :1s    -0.0000   3.3983 -16.0062  -0.6710  -6.8778  -0.0000
2375 H_l :2px    0.0000  -0.1819   0.0131  -0.0337   0.0310  -0.0000
2376 H_l :2py   -0.0000  -0.0537   0.0455  -0.0036  -0.0523  -0.0000
2378 H_l :2px    0.0000   0.4350  -0.4796  -0.0873  -0.0010  -0.0000
2379 H_l :2py   -0.0000   0.3757   1.4614  -0.1989  -0.6568  -0.0000
2380 H_l :2pz    0.0017   0.0000  -0.0000   0.0000  -0.0000   0.0975
2381 H_l :2px   -0.0000  -0.9724   0.6734   0.1012   0.0477   0.0000
2382 H_l :2py    0.0000   0.2769  -2.0428  -0.9972  -2.7930  -0.0000
2383 H_l :2pz   -0.4903  -0.0000  -0.0000   0.0000   0.0000  -0.8822
2394 H_l :3d2-  -0.0000   0.0001  -0.0270   0.0174  -0.0629   0.0000
2395 H_l :3d1-   0.0249  -0.0000   0.0000  -0.0000   0.0000  -0.0020
2396 H_l :3d0   -0.0000   0.0105  -0.0170   0.0105  -0.0305  -0.0000
2398 H_l :3d2+   0.0000  -0.0106   0.0250   0.0199  -0.0330   0.0000
2399 H_l :3d2-   0.0000   0.0307  -0.5497  -0.1067  -0.0288   0.0000
2400 H_l :3d1-   0.1065  -0.0000   0.0000  -0.0000   0.0000  -0.0470
2401 H_l :3d0    0.0000   0.0522  -0.4218  -0.1286  -0.0332  -0.0000
2402 H_l :3d1+  -0.0037  -0.0000  -0.0000   0.0000   0.0000  -0.0295
2403 H_l :3d2+  -0.0000  -0.0748  -0.0702  -0.0359  -0.0632   0.0000
2418 H_l :4f3-  -0.0000  -0.0426   0.0004   0.0092  -0.0626  -0.0000
2419 H_l :4f2-   0.0309  -0.0000  -0.0000  -0.0000   0.0000  -0.0049
2420 H_l :4f1-   0.0000   0.0799   0.0748   0.0444   0.0335   0.0000
2422 H_l :4f1+  -0.0000  -0.0224  -0.0497  -0.0390  -0.0607  -0.0000
2424 H_l :4f3+  -0.0000  -0.1190   0.0123  -0.0340  -0.1282  -0.0000
2427 H_m :1s     0.0000  -0.1602   0.0500   0.0594  -0.2906  -0.0000
2428 H_m :1s     0.0000  -0.3280   0.0660  -1.0555   0.1287   0.0000
2429 H_m :1s     0.0000   2.6370   0.6072  -4.2514   1.2551  -0.0000
2430 H_m :1s     0.0000   5.8590 -21.8900  16.2065   6.4403  -0.0000
2437 H_m :2px    0.0000   0.0075   0.0021   0.1105  -0.0120  -0.0000
2438 H_m :2py   -0.0000  -0.0328  -0.0193  -0.1632   0.0051  -0.0000
2439 H_m :2pz    0.0217  -0.0000  -0.0000   0.0000  -0.0000   0.0002
2440 H_m :2px   -0.0000  -0.6735  -0.2711  -1.5309  -0.4854  -0.0000
2441 H_m :2py   -0.0000   0.1675  -0.9256  -1.6113  -0.0116  -0.0000
2442 H_m :2pz    0.4794   0.0000   0.0000  -0.0000   0.0000  -0.1768
2443 H_m :2px    0.0000   0.3140   0.8725  -1.4379   0.5999  -0.0000
2444 H_m :2py    0.0000   0.1900   0.4060  -0.8926   0.8621  -0.0000
2445 H_m :2pz    2.0706   0.0000   0.0000  -0.0000   0.0000  -0.2007
2456 H_m :3d2-  -0.0000   0.0104  -0.0271   0.0068   0.0043  -0.0000
2457 H_m :3d1-  -0.0187  -0.0000  -0.0000   0.0000   0.0000  -0.0033
2458 H_m :3d0    0.0000  -0.0162   0.0188   0.0061  -0.0399  -0.0000
2459 H_m :3d1+   0.0375   0.0000   0.0000  -0.0000   0.0000  -0.0034
2460 H_m :3d2+  -0.0000  -0.0013   0.0345   0.0382  -0.0057  -0.0000
2461 H_m :3d2-  -0.0000   0.1377   0.1352  -0.0705  -0.0062   0.0000
2462 H_m :3d1-  -0.0628  -0.0000   0.0000   0.0000  -0.0000   0.0464
2463 H_m :3d0    0.0000  -0.1287  -0.0165   0.1892  -0.0365   0.0000
2464 H_m :3d1+   0.1904   0.0000   0.0000  -0.0000   0.0000   0.0038
2465 H_m :3d2+   0.0000  -0.1478   0.0831   0.0914   0.0150   0.0000
2480 H_m :4f3-   0.0000   0.0155   0.0696   0.0885   0.0077   0.0000
2481 H_m :4f2-  -0.0104  -0.0000  -0.0000  -0.0000   0.0000  -0.0002
2482 H_m :4f1-   0.0000   0.0236   0.0386  -0.0062  -0.0033   0.0000
2484 H_m :4f1+  -0.0000  -0.0081   0.0097  -0.0427  -0.0266  -0.0000
2485 H_m :4f2+   0.0150  -0.0000  -0.0000   0.0000  -0.0000   0.0187
2486 H_m :4f3+   0.0000   0.0618   0.0943   0.0505   0.0164   0.0000
2489 H_n :1s     0.0000  -0.1857  -0.1761  -0.4075   0.1045  -0.0000
2490 H_n :1s     0.0000   0.1328   0.6861  -3.7448   2.2585   0.0000
2491 H_n :1s    -0.0000   2.5973  -0.7232  -0.6457   0.5724   0.0000
2492 H_n :1s    -0.0000   7.1505  23.9945  -7.0218   4.2988  -0.0000
2499 H_n :2px   -0.0000   0.0568  -0.0050   0.0132   0.1075  -0.0000
2500 H_n :2py   -0.0000   0.0167  -0.0159  -0.1518  -0.0189  -0.0000
2501 H_n :2pz    0.0489  -0.0000  -0.0000   0.0000  -0.0000   0.0026
2502 H_n :2px    0.0000   0.2658   0.5046  -0.1335   0.0874   0.0000
2503 H_n :2py    0.0000  -0.0920  -0.1184   0.4371  -0.1303   0.0000
2504 H_n :2pz    0.2343   0.0000   0.0000  -0.0000   0.0000  -0.1492
2505 H_n :2px    0.0000  -0.2080   0.4086   0.4961  -0.3404   0.0000
2506 H_n :2py    0.0000  -0.1185   0.7361  -0.7813   0.6367  -0.0000
2507 H_n :2pz    1.3687  -0.0000   0.0000  -0.0000   0.0000  -0.0149
2519 H_n :3d1-  -0.0233  -0.0000  -0.0000   0.0000  -0.0000   0.0037
2520 H_n :3d0    0.0000  -0.0085   0.0001  -0.0472  -0.0044  -0.0000
2521 H_n :3d1+  -0.0297  -0.0000  -0.0000   0.0000   0.0000   0.0049
2522 H_n :3d2+  -0.0000   0.0085  -0.0064  -0.0210  -0.0087  -0.0000
2523 H_n :3d2-   0.0000  -0.0615  -0.0989  -0.2328   0.1258   0.0000
2524 H_n :3d1-  -0.1783  -0.0000  -0.0000   0.0000  -0.0000   0.0452
2525 H_n :3d0    0.0000  -0.0534  -0.0148  -0.3359   0.0279   0.0000
2526 H_n :3d1+  -0.0647   0.0000   0.0000   0.0000  -0.0000  -0.0086
2527 H_n :3d2+   0.0000  -0.0250  -0.0876   0.2508  -0.0758   0.0000
2542 H_n :4f3-  -0.0000   0.0023  -0.0018  -0.0710   0.0043  -0.0000
2543 H_n :4f2-   0.0115  -0.0000  -0.0000   0.0000  -0.0000   0.0086
2544 H_n :4f1-   0.0000  -0.0063   0.0057   0.0481   0.0067   0.0000
2545 H_n :4f0   -0.0243  -0.0000  -0.0000   0.0000  -0.0000   0.0046
2546 H_n :4f1+   0.0000   0.0199   0.0055  -0.0330   0.0109   0.0000
2548 H_n :4f3+  -0.0000   0.0027  -0.0028  -0.0339   0.0229   0.0000

  Total CPU  time used in SIRIUS :   2 hours 51 minutes 55 seconds
  Total wall time used in SIRIUS :   2 hours 52 minutes 58 seconds

 
     Date and time (Linux)  : Tue May 27 19:04:25 2025
     Host name              : xm023                                   

 NOTE:    1 warnings have been issued.
 Check output, result, and error files for "WARNING".


                     .---------------------------------------.
                     | End of Wave Function Section (SIRIUS) |
                     `---------------------------------------'



                 .------------------------------------------------.
                 | Starting in Dynamic Property Section (RESPONS) |
                 `------------------------------------------------'


 ----------------------------------------------------------------------------------------
  RESPONSE  -  an MCSCF, MC-srDFT, DFT, SOPPA and SOPPA-srDFT response property program
 ----------------------------------------------------------------------------------------


 -------- OUTPUT FROM RESPONSE INPUT PROCESSING --------




 Quadratic Response calculation
 ------------------------------

 First hyperpolarizability calculation : HYPCAL= T

 Spin of operator A , ISPINA=    0
 Spin of operator B , ISPINB=    0
 Spin of operator C , ISPINC=    0

  2 B-frequencies  0.000000D+00  2.010000D-02
  2 C-frequencies  0.000000D+00  2.010000D-02


 Print level                                    : IPRHYP =   2
 Maximum number of iterations in lin.rsp. solver: MAXITL =  60
 Threshold for convergence of linear resp. eq.s : THCLR  = 1.000D-03
 Maximum iterations in optimal orbital algorithm: MAXITO =   5
 Direct one-index transformation                : DIROIT = T

    3 A OPERATORS OF SYMMETRY NO:    1 AND LABELS:

          XDIPLEN 
          YDIPLEN 
          ZDIPLEN 

    3 B OPERATORS OF SYMMETRY NO:    1 AND LABELS:

          XDIPLEN 
          YDIPLEN 
          ZDIPLEN 

    3 C OPERATORS OF SYMMETRY NO:    1 AND LABELS:

          XDIPLEN 
          YDIPLEN 
          ZDIPLEN 


   SCF energy         :     -721.277912828016269
 -- inactive part     :    -1561.157378455226763
 -- nuclear repulsion :      839.879465627210493


                     ***************************************
                     *** RHF response calculation (TDHF) ***
                     ***************************************



 Linear response calculations for quadratic response
 - singlet property operator of symmetry    1  ( A  )


 Perturbation symmetry.     KSYMOP:           1
 Perturbation spin symmetry.TRPLET:           F
 Orbital variables.         KZWOPT:      135778
 Configuration variables.   KZCONF:           0
 Total number of variables. KZVAR :      135778


 QRLRVE -- linear response calculation for symmetry  1  ( A  )
 QRLRVE -- operator label : XDIPLEN 
 QRLRVE -- operator spin  :   0
 QRLRVE -- frequencies :  0.000000  0.020100  0.040200



 ---  SOLVING SETS OF LINEAR EQUATIONS FOR LINEAR RESPONSE PROPERTIES ---

 Operator symmetry = 1  ( A  ); triplet =   F


 ** RSPCTL MICROITERATION NUMBER    1

 MEMGET ERROR, insufficient free space for next allocation
               ( Need:  19476926, available (LFREE):  15807448 )


 QTRACE dump of internal trace stack

 ========================
      level    module
 ========================
         15    MEMGET2     
         14    HER_PARDRV  
         13    PARDRV      
         12    HERFCK_1    
         11    HERFCK      
         10    SIRFCK      
          9    RSPOLI      
          8    RSPELI      
          7    RSPCTL      
          6    QRLRVE      
          5    QRVEC       
          4    QRCALC      
          3    RSPDRV      
          2    DALTON      
          1    DALTON main 
 ========================


  --- SEVERE ERROR, PROGRAM WILL BE ABORTED ---
     Date and time (Linux)  : Tue May 27 19:04:40 2025
     Host name              : xm023                                   

@ MPI MASTER, node no.:     0
@ Reason: MEMGET ERROR, insufficient work space in memory

  Total CPU  time used in DALTON:   2 hours 53 minutes 46 seconds
  Total wall time used in DALTON:   2 hours 54 minutes 50 seconds


 QTRACE dump of internal trace stack

 ========================
      level    module
 ========================
         15    MEMGET2     
         14    HER_PARDRV  
         13    PARDRV      
         12    HERFCK_1    
         11    HERFCK      
         10    SIRFCK      
          9    RSPOLI      
          8    RSPELI      
          7    RSPCTL      
          6    QRLRVE      
          5    QRVEC       
          4    QRCALC      
          3    RSPDRV      
          2    DALTON      
          1    DALTON main 
 ========================

