

     ************************************************************************
     *************** Dalton - An Electronic Structure Program ***************
     ************************************************************************

    This is output from DALTON release Dalton2020.0 (2020)
         ( Web site: http://daltonprogram.org )

   ----------------------------------------------------------------------------

    NOTE:
     
    Dalton is an experimental code for the evaluation of molecular
    properties using (MC)SCF, DFT, CI, and CC wave functions.
    The authors accept no responsibility for the performance of
    the code or for the correctness of the results.
     
    The code (in whole or part) is provided under a licence and
    is not to be reproduced for further distribution without
    the written permission of the authors or their representatives.
     
    See the home page "http://daltonprogram.org" for further information.
     
    If results obtained with this code are published,
    the appropriate citations would be both of:
     
       K. Aidas, C. Angeli, K. L. Bak, V. Bakken, R. Bast,
       L. Boman, O. Christiansen, R. Cimiraglia, S. Coriani,
       P. Dahle, E. K. Dalskov, U. Ekstroem,
       T. Enevoldsen, J. J. Eriksen, P. Ettenhuber, B. Fernandez,
       L. Ferrighi, H. Fliegl, L. Frediani, K. Hald, A. Halkier,
       C. Haettig, H. Heiberg, T. Helgaker, A. C. Hennum,
       H. Hettema, E. Hjertenaes, S. Hoest, I.-M. Hoeyvik,
       M. F. Iozzi, B. Jansik, H. J. Aa. Jensen, D. Jonsson,
       P. Joergensen, J. Kauczor, S. Kirpekar,
       T. Kjaergaard, W. Klopper, S. Knecht, R. Kobayashi, H. Koch,
       J. Kongsted, A. Krapp, K. Kristensen, A. Ligabue,
       O. B. Lutnaes, J. I. Melo, K. V. Mikkelsen, R. H. Myhre,
       C. Neiss, C. B. Nielsen, P. Norman, J. Olsen,
       J. M. H. Olsen, A. Osted, M. J. Packer, F. Pawlowski,
       T. B. Pedersen, P. F. Provasi, S. Reine, Z. Rinkevicius,
       T. A. Ruden, K. Ruud, V. Rybkin, P. Salek, C. C. M. Samson,
       A. Sanchez de Meras, T. Saue, S. P. A. Sauer,
       B. Schimmelpfennig, K. Sneskov, A. H. Steindal,
       K. O. Sylvester-Hvid, P. R. Taylor, A. M. Teale,
       E. I. Tellgren, D. P. Tew, A. J. Thorvaldsen, L. Thoegersen,
       O. Vahtras, M. A. Watson, D. J. D. Wilson, M. Ziolkowski
       and H. Agren,
       "The Dalton quantum chemistry program system",
       WIREs Comput. Mol. Sci. 2014, 4:269–284 (doi: 10.1002/wcms.1172)
     
    and
     
       Dalton, a molecular electronic structure program,
       Release Dalton2020.0 (2020), see http://daltonprogram.org
   ----------------------------------------------------------------------------

    Authors in alphabetical order (Major contribution(s) in parenthesis):

  Kestutis Aidas,           Vilnius University,           Lithuania   (QM/MM)
  Celestino Angeli,         University of Ferrara,        Italy       (NEVPT2)
  Keld L. Bak,              UNI-C,                        Denmark     (AOSOPPA, non-adiabatic coupling, magnetic properties)
  Vebjoern Bakken,          University of Oslo,           Norway      (DALTON; geometry optimizer, symmetry detection)
  Radovan Bast,             UiT The Arctic U. of Norway,  Norway      (DALTON installation and execution frameworks)
  Pablo Baudin,             University of Valencia,       Spain       (Cholesky excitation energies)
  Linus Boman,              NTNU,                         Norway      (Cholesky decomposition and subsystems)
  Bruno N. Cabral Tenorio,  Technical Univ. of Denmark,   Denmark     (Lanczos-based CC methods)
  Ove Christiansen,         Aarhus University,            Denmark     (CC module)
  Renzo Cimiraglia,         University of Ferrara,        Italy       (NEVPT2)
  Sonia Coriani,            Technical Univ. of Denmark,   Denmark     (CC and RESPONS modules)
  Janusz Cukras,            University of Warsaw,         Poland      (MChD in RESPONS)
  Paal Dahle,               University of Oslo,           Norway      (Parallelization)
  Erik K. Dalskov,          UNI-C,                        Denmark     (SOPPA)
  Thomas Enevoldsen,        Univ. of Southern Denmark,    Denmark     (SOPPA)
  Janus J. Eriksen,         Aarhus University,            Denmark     (Polarizable embedding, TDA)
  Rasmus Faber,             Technical Univ. of Denmark,   Denmark     (Vib.avg. NMR w. SOPPA, parallel AO-SOPPA, CVS-CC and EOMCC)
  Tobias Fahleson,          KTH Stockholm,                Sweden      (Damped cubic response)
  Berta Fernandez,          U. of Santiago de Compostela, Spain       (Doublet spin, ESR in RESPONS)
  Lara Ferrighi,            Aarhus University,            Denmark     (PCM Cubic response)
  Heike Fliegl,             University of Oslo,           Norway      (CCSD(R12))
  Luca Frediani,            UiT The Arctic U. of Norway,  Norway      (PCM)
  Emmanuel Fromager,        Univ. Strasbourg,             France      (MC-srDFT)
  Bin Gao,                  UiT The Arctic U. of Norway,  Norway      (Gen1Int library)
  Andre S. P. Gomes,        CNRS/Universite de Lille,     France      (Frozen density embedding)
  Christof Haettig,         Ruhr-University Bochum,       Germany     (CC module)
  Kasper Hald,              Aarhus University,            Denmark     (CC module)
  Asger Halkier,            Aarhus University,            Denmark     (CC module)
  Frederik Beyer Hansen,    University of Copenhagen,     Denmark     (Parallel AO-SOPPA)
  Erik D. Hedegaard,        Univ. of Southern Denmark,    Denmark     (Polarizable embedding, QM/MM, and MC-srDFT)
  Hanne Heiberg,            University of Oslo,           Norway      (Geometry analysis, selected one-electron integrals)
  Trygve Helgaker,          University of Oslo,           Norway      (DALTON; ABACUS, ERI, DFT modules, London, and much more)
  Alf Christian Hennum,     University of Oslo,           Norway      (Parity violation)
  Hinne Hettema,            University of Auckland,       New Zealand (Quadratic response in RESPONS; SIRIUS supersymmetry)
  Eirik Hjertenaes,         NTNU,                         Norway      (Cholesky decomposition)
  Pi A. B. Haase,           University of Copenhagen,     Denmark     (Triplet AO-SOPPA)
  Maria Francesca Iozzi,    University of Oslo,           Norway      (RPA)
  Christoph Jacob           TU Braunschweig               Germany     (Frozen density embedding)
  Brano Jansik              Technical Univ. of Ostrava    Czech Rep.  (DFT cubic response)
  Hans Joergen Aa. Jensen,  Univ. of Southern Denmark,    Denmark     (DALTON; SIRIUS, RESPONS, ABACUS, MC-srDFT, and much more)
  Dan Jonsson,              UiT The Arctic U. of Norway,  Norway      (Cubic response in RESPONS module)
  Poul Joergensen,          Aarhus University,            Denmark     (RESPONS, ABACUS, and CC modules)
  Maciej Kaminski,          University of Warsaw,         Poland      (CPPh in RESPONS)
  Joanna Kauczor,           Linkoeping University,        Sweden      (Complex polarization propagator (CPP) module)
  Sheela Kirpekar,          Univ. of Southern Denmark,    Denmark     (Mass-velocity & Darwin integrals)
  Erik Kjellgren,           Univ. of Southern Denmark,    Denmark     (MC-srDFT)
  Wim Klopper,              KIT Karlsruhe,                Germany     (R12 code in CC, SIRIUS, and ABACUS modules)
  Stefan Knecht,            ETH Zurich,                   Switzerland (Parallel CI and MCSCF, MC-srDFT)
  Rika Kobayashi,           Australian National Univ.,    Australia   (DIIS in CC, London in MCSCF)
  Henrik Koch,              NTNU,                         Norway      (CC module, Cholesky decomposition)
  Jacob Kongsted,           Univ. of Southern Denmark,    Denmark     (Polarizable embedding, polarizable density embedding, QM/MM)
  Andrea Ligabue,           University of Modena,         Italy       (CTOCD, AOSOPPA)
  Nanna H. List             Univ. of Southern Denmark,    Denmark     (Polarizable embedding)
  Ola B. Lutnaes,           University of Oslo,           Norway      (DFT Hessian)
  Juan I. Melo,             University of Buenos Aires,   Argentina   (LRESC, Relativistic Effects on NMR Shieldings)
  Kurt V. Mikkelsen,        University of Copenhagen,     Denmark     (MC-SCRF and QM/MM)
  Rolf H. Myhre,            NTNU,                         Norway      (Subsystems and CC3)
  Christian Neiss,          Univ. Erlangen-Nuernberg,     Germany     (CCSD(R12))
  Christian B. Nielsen,     University of Copenhagen,     Denmark     (QM/MM)
  Patrick Norman,           KTH Stockholm,                Sweden      (Cubic response and complex frequency response in RESPONS)
  Jeppe Olsen,              Aarhus University,            Denmark     (SIRIUS CI/density modules)
  Jogvan Magnus H. Olsen,   Aarhus University,            Denmark     (Polarizable embedding and polarizable density embedding)
  Anders Osted,             Copenhagen University,        Denmark     (QM/MM)
  Martin J. Packer,         University of Sheffield,      UK          (SOPPA)
  Filip Pawlowski,          Kazimierz Wielki University,  Poland      (CC3)
  Morten N. Pedersen,       Univ. of Southern Denmark,    Denmark     (Polarizable embedding)
  Thomas B. Pedersen,       University of Oslo,           Norway      (Cholesky decomposition)
  Patricio F. Provasi,      University of Northeastern,   Argentina   (Analysis of coupling constants in localized orbitals)
  Peter Reinholdt,          Univ. of Southern Denmark,    Denmark     (Polarizable embedding and polarizable density embedding)
  Zilvinas Rinkevicius,     KTH Stockholm,                Sweden      (open-shell DFT, ESR)
  Elias Rudberg,            KTH Stockholm,                Sweden      (DFT grid and basis info)
  Torgeir A. Ruden,         University of Oslo,           Norway      (Numerical derivatives in ABACUS)
  Kenneth Ruud,             UiT The Arctic U. of Norway,  Norway      (DALTON; ABACUS magnetic properties and much more)
  Pawel Salek,              KTH Stockholm,                Sweden      (DALTON; DFT code)
  Claire C. M. Samson       University of Karlsruhe       Germany     (Boys localization, r12 integrals in ERI)
  Alfredo Sanchez de Meras, University of Valencia,       Spain       (CC module, Cholesky decomposition)
  Trond Saue,               Paul Sabatier University,     France      (direct Fock matrix construction)
  Stephan P. A. Sauer,      University of Copenhagen,     Denmark     (SOPPA(CCSD), SOPPA prop., AOSOPPA, vibrational g-factors)
  Bernd Schimmelpfennig,    Forschungszentrum Karlsruhe,  Germany     (AMFI module)
  Anna K. Schnack-Petersen, University of Copenhagen,     Denmark     (RPA(D) and HRPA(D) properties in AOSOPPA)
  Kristian Sneskov,         Aarhus University,            Denmark     (Polarizable embedding, QM/MM)
  Arnfinn H. Steindal,      UiT The Arctic U. of Norway,  Norway      (parallel QM/MM, polarizable embedding)
  Casper Steinmann,         Aalborg University,           Denmark     (QFIT, polarizable embedding)
  K. O. Sylvester-Hvid,     University of Copenhagen,     Denmark     (MC-SCRF)
  Peter R. Taylor,          VLSCI/Univ. of Melbourne,     Australia   (Symmetry handling ABACUS, integral transformation)
  Andrew M. Teale,          University of Nottingham,     England     (DFT-AC, DFT-D)
  David P. Tew,             University of Bristol,        England     (CCSD(R12))
  Julien Toulouse,          Sorbonne Univ.,               France      (MC-srDFT)
  Olav Vahtras,             KTH Stockholm,                Sweden      (Triplet response, spin-orbit, ESR, TDDFT, open-shell DFT)
  Lucas Visscher,           Vrije Universiteit Amsterdam, Netherlands (Frozen density embedding)
  David J. Wilson,          La Trobe University,          Australia   (DFT Hessian and DFT magnetizabilities)
  Hans Agren,               KTH Stockholm,                Sweden      (SIRIUS module, RESPONS, MC-SCRF solvation)
 --------------------------------------------------------------------------------

     Date and time (Linux)  : Tue May 20 14:24:52 2025
     Host name              : xm045                                   

 * Work memory size             :  1310720000 =  9.766 gigabytes.

 * Directories for basis set searches:
   1) /gpfs/projects/rjh/adrian/summer2025/beta_projects/raw_data/NLO/dalton/hf/n6/dipole
   2) /gpfs/projects/rjh/adrian/dalton/build/basis


Compilation information
-----------------------

 Who compiled             | ahurtado
 Host                     | milan2
 System                   | Linux-5.14.0-427.42.1.el9_4.x86_64
 CMake generator          | Unix Makefiles
 Processor                | x86_64
 64-bit integers          | OFF
 MPI                      | ON
 Fortran compiler         | /gpfs/software/openmpi/milan/gcc13.2/4.1.6/bin/mpi
                          | f90
 Fortran compiler version | GNU Fortran (GCC) 13.2.0
 C compiler               | /gpfs/software/openmpi/milan/gcc13.2/4.1.6/bin/mpi
                          | cc
 C compiler version       | gcc (GCC) 13.2.0
 C++ compiler             | /gpfs/software/openmpi/milan/gcc13.2/4.1.6/bin/mpi
                          | cxx
 C++ compiler version     | unknown
 BLAS                     | /gpfs/software/intel/oneAPI/2024_2/mkl/2024.2/lib/
                          | intel64/libmkl_gf_lp64.so;/gpfs/software/intel/one
                          | API/2024_2/mkl/2024.2/lib/intel64/libmkl_sequentia
                          | l.so;/gpfs/software/intel/oneAPI/2024_2/mkl/2024.2
                          | /lib/intel64/libmkl_core.so;/usr/lib64/libpthread.
                          | a;/usr/lib64/libm.so
 LAPACK                   | /gpfs/software/intel/oneAPI/2024_2/mkl/2024.2/lib/
                          | intel64/libmkl_lapack95_lp64.a;/gpfs/software/inte
                          | l/oneAPI/2024_2/mkl/2024.2/lib/intel64/libmkl_gf_l
                          | p64.so
 Static linking           | OFF
 Last Git revision        | 66052b3af5ea7225e31178bf9a8b031913c72190
 Git branch               | (HEAD detached at Dalton2020.0)
 Configuration time       | 2025-04-10 16:02:31.569498

 * MPI parallel run using 96 processes.


   Content of the .dal input file
 ----------------------------------

**DALTON INPUT
.RUN RESPONSE
.DIRECT
**WAVE FUNCTIONS
.HF
**PROPERTIES
**RESPONSE
*QUADRA
.DIPLEN
.FREQUENCIES
2
0.0 0.0201
**END OF DALTON INPUT


   Content of the .mol file
 ----------------------------

BASIS
aug-cc-pVDZ
blah
blah
Atomtype=4 Angstrom Charge=0 Nosymmetry
Charge=6 Atoms=12
C_a -1.5409340013725623 7.648444002169006 0.0
C_b -2.0062739986099687 6.359974997481831 0.0
C_c -1.117924000488792 5.226000999275696 0.0
C_d -1.512054001638856 3.910470999182316 0.0
C_e -0.5863380016146826 2.807702999139388 0.0
C_f -0.9491559998226989 1.4820489976141258 0.0
C_g 0.0 0.39966299868824806 0.0
C_h -0.3396019991227674 -0.9313269982832101 0.0
C_i 0.6318300011387791 -1.9960939996456535 0.0
C_j 0.31624100019002277 -3.3298059995204445 0.0
C_k 1.3240629984907504 -4.366341999955663 0.0
C_l 1.034302999608722 -5.688294999570765 0.0
Charge=7 Atoms=2
N_a -2.3045209998062157 8.782894000567909 0.0
N_b 2.0916910004841918 -6.691574000934346 0.0
Charge=8 Atoms=2
O_a 3.267613998035823 -6.319843002173978 0.0
O_b 1.710391001350492 -7.868637999804081 0.0
Charge=1 Atoms=14
H_a -0.4588089979387591 7.830007999923906 0.0
H_b -3.089380001340456 6.1770070026268975 0.0
H_c -0.037261997414011726 5.437900001255672 0.0
H_d -2.586386997648074 3.6768810021698886 0.0
H_e 0.4870809995162662 3.0520889997235274 0.0
H_f -2.018261000162647 1.2250459994244614 0.0
H_g 1.067967999601558 0.6655219997529035 0.0
H_h -1.4035229995867406 -1.2083000013807854 0.0
H_i 1.6943540002254438 -1.7107379987228446 0.0
H_j -0.7402810021801856 -3.6304650010264696 0.0
H_k 2.3822630006289045 -4.077865001804448 0.0
H_l 0.03541099903235335 -6.128434001087978 0.0
H_m -3.31398899852896 8.728602000993027 0.0
H_n -1.8783430001741876 9.696697999325472 0.0


       *******************************************************************
       *********** Output from DALTON general input processing ***********
       *******************************************************************

 --------------------------------------------------------------------------------
   Overall default print level:    0
   Print level for DALTON.STAT:    1

    Parallel calculation using MPI
    AO-direct calculation (in sections where implemented)
    HERMIT 1- and 2-electron integral sections will be executed
    "Old" integral transformation used (limited to max 255 basis functions)
    Wave function sections will be executed (SIRIUS module)
    Dynamic molecular response properties section will be executed (RESPONSE module)
 --------------------------------------------------------------------------------


   ****************************************************************************
   *************** Output of molecule and basis set information ***************
   ****************************************************************************


    The two title cards from your ".mol" input:
    ------------------------------------------------------------------------
 1: blah                                                                    
 2: blah                                                                    
    ------------------------------------------------------------------------

  Coordinates are entered in Angstrom and converted to atomic units.
          - Conversion factor : 1 bohr = 0.52917721 A

  Atomic type no.    1
  --------------------
  Nuclear charge:   6.00000
  Number of symmetry independent centers:   12
  Number of basis sets to read;    2
  Basis set file used for this atomic type with Z =   6 :
     "/gpfs/projects/rjh/adrian/dalton/build/basis/aug-cc-pVDZ"

  Atomic type no.    2
  --------------------
  Nuclear charge:   7.00000
  Number of symmetry independent centers:    2
  Number of basis sets to read;    2
  Basis set file used for this atomic type with Z =   7 :
     "/gpfs/projects/rjh/adrian/dalton/build/basis/aug-cc-pVDZ"

  Atomic type no.    3
  --------------------
  Nuclear charge:   8.00000
  Number of symmetry independent centers:    2
  Number of basis sets to read;    2
  Basis set file used for this atomic type with Z =   8 :
     "/gpfs/projects/rjh/adrian/dalton/build/basis/aug-cc-pVDZ"

  Atomic type no.    4
  --------------------
  Nuclear charge:   1.00000
  Number of symmetry independent centers:   14
  Number of basis sets to read;    2
  Basis set file used for this atomic type with Z =   1 :
     "/gpfs/projects/rjh/adrian/dalton/build/basis/aug-cc-pVDZ"


                         SYMGRP: Point group information
                         -------------------------------

@    Point group: C1 


                                 Isotopic Masses
                                 ---------------

                           C_a        12.000000
                           C_b        12.000000
                           C_c        12.000000
                           C_d        12.000000
                           C_e        12.000000
                           C_f        12.000000
                           C_g        12.000000
                           C_h        12.000000
                           C_i        12.000000
                           C_j        12.000000
                           C_k        12.000000
                           C_l        12.000000
                           N_a        14.003074
                           N_b        14.003074
                           O_a        15.994915
                           O_b        15.994915
                           H_a         1.007825
                           H_b         1.007825
                           H_c         1.007825
                           H_d         1.007825
                           H_e         1.007825
                           H_f         1.007825
                           H_g         1.007825
                           H_h         1.007825
                           H_i         1.007825
                           H_j         1.007825
                           H_k         1.007825
                           H_l         1.007825
                           H_m         1.007825
                           H_n         1.007825

                       Total mass:   218.105528 amu
                       Natural abundance:  86.325 %

 Center-of-mass coordinates (a.u.):    0.084529   -0.254926    0.000000
 Center-of-mass coordinates (Angs):    0.044731   -0.134901    0.000000


  Atoms and basis sets
  --------------------

  Number of atom types :    4
  Total number of atoms:   30

  Basis set used is "aug-cc-pVDZ" from the basis set library.

  label    atoms   charge   prim   cont     basis
  ----------------------------------------------------------------------
  C_         12    6.0000    35    23      [10s5p2d|4s3p2d]                                   
  N_          2    7.0000    35    23      [10s5p2d|4s3p2d]                                   
  O_          2    8.0000    35    23      [10s5p2d|4s3p2d]                                   
  H_         14    1.0000    11     9      [5s2p|3s2p]                                        
  ----------------------------------------------------------------------
  total:     30  116.0000   714   494
  ----------------------------------------------------------------------
  Spherical harmonic basis used.

  Threshold for neglecting AO integrals:  1.00D-12

  Max    interatomic separation is   17.9282 Angstrom (   33.8794 Bohr)
  between atoms   30 and   16, "H_n   " and "O_b   ".

  Min HX interatomic separation is    1.0083 Angstrom (    1.9054 Bohr)

  Min YX interatomic separation is    1.2333 Angstrom (    2.3306 Bohr)


  Bond distances (Angstrom):
  --------------------------

                  atom 1     atom 2       distance
                  ------     ------       --------
  bond distance:  C_b        C_a          1.369925
  bond distance:  C_c        C_b          1.440508
  bond distance:  C_d        C_c          1.373302
  bond distance:  C_e        C_d          1.439808
  bond distance:  C_f        C_e          1.374407
  bond distance:  C_g        C_f          1.439603
  bond distance:  C_h        C_g          1.373632
  bond distance:  C_i        C_h          1.441322
  bond distance:  C_j        C_i          1.370542
  bond distance:  C_k        C_j          1.445722
  bond distance:  C_l        C_k          1.353337
  bond distance:  N_a        C_a          1.367495
  bond distance:  N_b        C_l          1.457614
  bond distance:  O_a        N_b          1.233280
  bond distance:  O_b        N_b          1.237283
  bond distance:  H_a        C_a          1.097251
  bond distance:  H_b        C_b          1.098452
  bond distance:  H_c        C_c          1.101241
  bond distance:  H_d        C_d          1.099434
  bond distance:  H_e        C_e          1.100887
  bond distance:  H_f        C_f          1.099562
  bond distance:  H_g        C_g          1.100562
  bond distance:  H_h        C_h          1.099383
  bond distance:  H_i        C_i          1.100175
  bond distance:  H_j        C_j          1.098469
  bond distance:  H_k        C_k          1.096816
  bond distance:  H_l        C_l          1.091562
  bond distance:  H_m        N_a          1.010927
  bond distance:  H_n        N_a          1.008298


  Bond angles (degrees):
  ----------------------

                  atom 1     atom 2     atom 3         angle
                  ------     ------     ------         -----
  bond angle:     C_b        C_a        N_a          126.198
  bond angle:     C_b        C_a        H_a          119.382
  bond angle:     N_a        C_a        H_a          114.419
  bond angle:     C_a        C_b        C_c          122.067
  bond angle:     C_a        C_b        H_b          119.446
  bond angle:     C_c        C_b        H_b          118.487
  bond angle:     C_b        C_c        C_d          125.247
  bond angle:     C_b        C_c        H_c          116.981
  bond angle:     C_d        C_c        H_c          117.772
  bond angle:     C_c        C_d        C_e          123.310
  bond angle:     C_c        C_d        H_d          118.945
  bond angle:     C_e        C_d        H_d          117.745
  bond angle:     C_d        C_e        C_f          124.682
  bond angle:     C_d        C_e        H_e          117.186
  bond angle:     C_f        C_e        H_e          118.132
  bond angle:     C_e        C_f        C_g          123.446
  bond angle:     C_e        C_f        H_f          118.823
  bond angle:     C_g        C_f        H_f          117.731
  bond angle:     C_f        C_g        C_h          124.439
  bond angle:     C_f        C_g        H_g          117.269
  bond angle:     C_h        C_g        H_g          118.293
  bond angle:     C_g        C_h        C_i          123.311
  bond angle:     C_g        C_h        H_h          118.906
  bond angle:     C_i        C_h        H_h          117.783
  bond angle:     C_h        C_i        C_j          124.312
  bond angle:     C_h        C_i        H_i          117.343
  bond angle:     C_j        C_i        H_i          118.346
  bond angle:     C_i        C_j        C_k          122.492
  bond angle:     C_i        C_j        H_j          119.198
  bond angle:     C_k        C_j        H_j          118.310
  bond angle:     C_j        C_k        C_l          123.442
  bond angle:     C_j        C_k        H_k          118.946
  bond angle:     C_l        C_k        H_k          117.612
  bond angle:     C_k        C_l        N_b          121.133
  bond angle:     C_k        C_l        H_l          126.143
  bond angle:     N_b        C_l        H_l          112.725
  bond angle:     C_a        N_a        H_m          120.866
  bond angle:     C_a        N_a        H_n          121.053
  bond angle:     H_m        N_a        H_n          118.082
  bond angle:     C_l        N_b        O_a          118.961
  bond angle:     C_l        N_b        O_b          115.547
  bond angle:     O_a        N_b        O_b          125.492




 Principal moments of inertia (u*A**2) and principal axes
 --------------------------------------------------------

   IA      88.457596         -0.268559    0.963263    0.000000
   IB    6848.677198          0.963263    0.268559    0.000000
   IC    6937.134794          0.000000    0.000000    1.000000


 Rotational constants
 --------------------

@    The molecule is planar.

               A                   B                   C

           5713.2347             73.7922             72.8513 MHz
            0.190573            0.002461            0.002430 cm-1


@  Nuclear repulsion energy :  839.879465627210 Hartree


                     .---------------------------------------.
                     | Starting in Integral Section (HERMIT) |
                     `---------------------------------------'



 ***************************************************************************************
 ****************** Output from **INTEGRALS input processing (HERMIT) ******************
 ***************************************************************************************


 - Using defaults, no **INTEGRALS input found

 Default print level:        1

 Calculation of one-electron Hamiltonian integrals.

 Center of mass  (bohr):      0.084529064515     -0.254926480599      0.000000000000
 Operator center (bohr):      0.000000000000      0.000000000000      0.000000000000
 Gauge origin    (bohr):      0.000000000000      0.000000000000      0.000000000000
 Dipole origin   (bohr):      0.000000000000      0.000000000000      0.000000000000


     ************************************************************************
     ************************** Output from HERINT **************************
     ************************************************************************



                      Nuclear contribution to dipole moments
                      --------------------------------------

                 au               Debye          C m (/(10**-30)

      x      0.00000375         0.00000953         0.00003179
      y     -0.00000952        -0.00002420        -0.00008071
      z      0.00000000         0.00000000         0.00000000


  Time used in ONEDRV     is       0.56 seconds
  Time used in HUCKEL     is       0.17 seconds
  Time used in POPOVLP    is       0.14 seconds
  Time used in R4         is       0.11 seconds
  Time used in QUADRUP    is       0.20 seconds
  Time used in KINENE     is       0.15 seconds
  Time used in GABGEN     is       0.43 seconds
  Total CPU  time used in HERMIT:   2.03 seconds
  Total wall time used in HERMIT:   2.07 seconds


                        .----------------------------------.
                        | End of Integral Section (HERMIT) |
                        `----------------------------------'



                   .--------------------------------------------.
                   | Starting in Wave Function Section (SIRIUS) |
                   `--------------------------------------------'


 *** Output from Huckel module :

     Using EWMO model:          T
     Using EHT  model:          F
     Number of Huckel orbitals each symmetry:   94

 EWMO - Energy Weighted Maximum Overlap - is a Huckel type method,
        which normally is better than Extended Huckel Theory.
 Reference: Linderberg and Ohrn, Propagators in Quantum Chemistry (Wiley, 1973)

 Huckel EWMO eigenvalues for symmetry :  1
          -20.684751     -20.683489     -15.677076     -15.674974     -11.359272
          -11.359089     -11.358575     -11.356923     -11.354453     -11.351843
          -11.348237     -11.346829     -11.345842     -11.345475     -11.345302
          -11.345275      -1.964070      -1.791004      -1.771497      -1.714524
           -1.610037      -1.472373      -1.438433      -1.304227      -1.191901
           -1.144337      -1.118703      -1.019259      -0.990557      -0.910296
           -0.869944      -0.851997      -0.824360      -0.768146      -0.765496
           -0.721976      -0.714853      -0.693582      -0.647974      -0.644434
           -0.611097      -0.594796      -0.585975      -0.566900      -0.547087
           -0.534422      -0.522376      -0.501686      -0.491914      -0.491873
           -0.489577      -0.479132      -0.478316      -0.467189      -0.424763
           -0.415728      -0.374310      -0.370913      -0.334716      -0.287126
           -0.253635      -0.229179      -0.228800      -0.211810      -0.201193
           -0.201104      -0.195466      -0.190507      -0.166495      -0.142763
           -0.138674      -0.132387      -0.130592      -0.130127      -0.129288
           -0.128661      -0.127701      -0.126874      -0.126319      -0.124647
           -0.124407      -0.123086      -0.110071      -0.108405      -0.101713
           -0.099251      -0.094039      -0.091531      -0.089081      -0.086814
           -0.085945      -0.083848      -0.081393      -0.079509

 **********************************************************************
 *SIRIUS* a direct, restricted step, second order MCSCF program       *
 **********************************************************************

 
     Date and time (Linux)  : Tue May 20 14:25:00 2025
     Host name              : xm045                                   

 Title lines from ".mol" input file:
     blah                                                                    
     blah                                                                    

 Print level on unit LUPRI =   2 is   0
 Print level on unit LUW4  =   2 is   5

@    Restricted, closed shell Hartree-Fock calculation.

@    Time-dependent Hartree-Fock calculation (random phase approximation).
 Fock matrices are calculated directly and in parallel without use of integrals on disk.

 Initial molecular orbitals are obtained according to
 ".MOSTART EWMO  " input option

     Wave function specification
     ============================
@    Wave function type        --- HF ---
@    Number of closed shell electrons         116
@    Number of electrons in active shells       0
@    Total charge of the molecule               0

@    Spin multiplicity and 2 M_S                1         0
@    Total number of symmetries                 1 (point group: C1 )
@    Reference state symmetry                   1 (irrep name : A  )

     Orbital specifications
     ======================
@    Abelian symmetry species          All |    1
@                                          |  A  
                                       --- |  ---
@    Occupied SCF orbitals              58 |   58
@    Secondary orbitals                436 |  436
@    Total number of orbitals          494 |  494
@    Number of basis functions         494 |  494

     Optimization information
     ========================
@    Number of configurations                 1
@    Number of orbital rotations          25288
     ------------------------------------------
@    Total number of variables            25289

     Maximum number of Fock   iterations      0
     Maximum number of DIIS   iterations     60
     Maximum number of QC-SCF iterations     60
     Threshold for SCF convergence     1.00D-05

    INFORMATION: Switched to "new" integral transformation (from 1988 ;-) )
    because more than 255 basis functions.


 ***********************************************
 ***** DIIS acceleration of SCF iterations *****
 ***********************************************

 C1-DIIS algorithm; max error vectors =    8

 Iter      Total energy        Error norm    Delta(E)  DIIS dim.
 -----------------------------------------------------------------------------
   1  Screening settings (-IFTHRS, JTDIIS, DIFDEN, times)   -9    1    T  7.92D+00  8.00D+00
@  1    -718.264006286        6.31186D+00   -7.18D+02    1
      Virial theorem: -V/T =      2.009122
@    MULPOP   C_a     0.87; C_b    -0.15; C_c     0.35; C_d     0.19; C_e     0.43; C_f     0.25; C_g     0.35; C_h     0.25; C_i     0.43; C_j     0.20; 
@             C_k     0.10; C_l     0.75; N_a    -0.21; N_b     1.05; O_a    -1.15; O_b    -1.15; H_a    -0.19; H_b    -0.23; H_c    -0.22; H_d    -0.22; 
@             H_e    -0.24; H_f    -0.23; H_g    -0.24; H_h    -0.24; H_i    -0.24; H_j    -0.22; H_k    -0.24; H_l    -0.20; H_m     0.07; H_n     0.06; 
   1  Level shift: doubly occupied orbital energies shifted by -2.00D-01
 -----------------------------------------------------------------------------
   2  Screening settings (-IFTHRS, JTDIIS, DIFDEN, times)   -9    2    T  3.45D+00  3.49D+00
@  2    -720.626726438        2.72359D+00   -2.36D+00    2
      Virial theorem: -V/T =      2.001818
@    MULPOP   C_a     0.63; C_b     0.70; C_c     0.29; C_d     0.91; C_e     0.49; C_f     0.67; C_g     0.59; C_h     0.70; C_i     0.48; C_j     0.77; 
@             C_k     0.48; C_l     0.59; N_a    -0.17; N_b     0.27; O_a    -0.50; O_b    -0.43; H_a    -0.43; H_b    -0.56; H_c    -0.54; H_d    -0.55; 
@             H_e    -0.59; H_f    -0.59; H_g    -0.60; H_h    -0.57; H_i    -0.55; H_j    -0.55; H_k    -0.55; H_l    -0.41; H_m    -0.02; H_n     0.03; 
   2  Level shift: doubly occupied orbital energies shifted by -1.00D-01
 -----------------------------------------------------------------------------
   3  Screening settings (-IFTHRS, JTDIIS, DIFDEN, times)   -9    3    T  3.35D+00  3.39D+00
@  3    -721.019773859        7.67435D-01   -3.93D-01    3
      Virial theorem: -V/T =      2.001081
@    MULPOP   C_a     0.81; C_b     0.74; C_c     0.30; C_d     0.88; C_e     0.50; C_f     0.73; C_g     0.62; C_h     0.75; C_i     0.43; C_j     0.77; 
@             C_k     0.51; C_l     1.10; N_a    -0.30; N_b     0.78; O_a    -0.85; O_b    -0.90; H_a    -0.40; H_b    -0.61; H_c    -0.59; H_d    -0.59; 
@             H_e    -0.62; H_f    -0.62; H_g    -0.64; H_h    -0.61; H_i    -0.59; H_j    -0.60; H_k    -0.59; H_l    -0.40; H_m    -0.04; H_n     0.01; 
   3  Level shift: doubly occupied orbital energies shifted by -5.00D-02
 -----------------------------------------------------------------------------
   4  Screening settings (-IFTHRS, JTDIIS, DIFDEN, times)   -9    4    T  3.28D+00  3.32D+00
@  4    -721.063449072        2.44395D-01   -4.37D-02    4
      Virial theorem: -V/T =      2.002705
@    MULPOP   C_a     0.87; C_b     0.76; C_c     0.27; C_d     0.91; C_e     0.51; C_f     0.75; C_g     0.64; C_h     0.78; C_i     0.41; C_j     0.79; 
@             C_k     0.52; C_l     1.07; N_a    -0.32; N_b     0.59; O_a    -0.82; O_b    -0.81; H_a    -0.39; H_b    -0.62; H_c    -0.60; H_d    -0.60; 
@             H_e    -0.63; H_f    -0.63; H_g    -0.65; H_h    -0.61; H_i    -0.59; H_j    -0.60; H_k    -0.58; H_l    -0.37; H_m    -0.06; H_n    -0.00; 
   4  Level shift: doubly occupied orbital energies shifted by -2.50D-02
 -----------------------------------------------------------------------------
   5  Screening settings (-IFTHRS, JTDIIS, DIFDEN, times)   -9    5    T  3.21D+00  3.25D+00
@  5    -721.072073093        9.79546D-02   -8.62D-03    5
      Virial theorem: -V/T =      2.002218
@    MULPOP   C_a     0.83; C_b     0.76; C_c     0.25; C_d     0.93; C_e     0.48; C_f     0.76; C_g     0.60; C_h     0.81; C_i     0.36; C_j     0.83; 
@             C_k     0.42; C_l     1.12; N_a    -0.33; N_b     0.62; O_a    -0.81; O_b    -0.84; H_a    -0.38; H_b    -0.62; H_c    -0.59; H_d    -0.59; 
@             H_e    -0.61; H_f    -0.62; H_g    -0.63; H_h    -0.60; H_i    -0.58; H_j    -0.58; H_k    -0.57; H_l    -0.36; H_m    -0.06; H_n    -0.00; 
   5  Level shift: doubly occupied orbital energies shifted by -1.25D-02
 -----------------------------------------------------------------------------
   6  Screening settings (-IFTHRS, JTDIIS, DIFDEN, times)  -13    6    F  3.90D+00  3.95D+00
@  6    -721.074240275        4.88061D-02   -2.17D-03    6
      Virial theorem: -V/T =      2.002068
@    MULPOP   C_a     0.82; C_b     0.75; C_c     0.24; C_d     0.94; C_e     0.46; C_f     0.78; C_g     0.58; C_h     0.82; C_i     0.35; C_j     0.85; 
@             C_k     0.40; C_l     1.13; N_a    -0.34; N_b     0.60; O_a    -0.82; O_b    -0.82; H_a    -0.37; H_b    -0.61; H_c    -0.59; H_d    -0.58; 
@             H_e    -0.61; H_f    -0.62; H_g    -0.63; H_h    -0.60; H_i    -0.57; H_j    -0.58; H_k    -0.56; H_l    -0.36; H_m    -0.06; H_n    -0.00; 
 -----------------------------------------------------------------------------
   7  Screening settings (-IFTHRS, JTDIIS, DIFDEN, times)  -13    7    T  3.73D+00  3.77D+00
@  7    -721.074886210        2.25370D-02   -6.46D-04    7
      Virial theorem: -V/T =      2.002097
@    MULPOP   C_a     0.83; C_b     0.75; C_c     0.24; C_d     0.94; C_e     0.46; C_f     0.78; C_g     0.58; C_h     0.83; C_i     0.33; C_j     0.86; 
@             C_k     0.38; C_l     1.14; N_a    -0.34; N_b     0.59; O_a    -0.80; O_b    -0.82; H_a    -0.37; H_b    -0.61; H_c    -0.59; H_d    -0.58; 
@             H_e    -0.61; H_f    -0.62; H_g    -0.63; H_h    -0.60; H_i    -0.57; H_j    -0.58; H_k    -0.56; H_l    -0.36; H_m    -0.06; H_n    -0.01; 
 -----------------------------------------------------------------------------
   8  Screening settings (-IFTHRS, JTDIIS, DIFDEN, times)  -13    8    T  3.66D+00  3.71D+00
@  8    -721.075008667        9.24188D-03   -1.22D-04    8
      Virial theorem: -V/T =      2.002098
@    MULPOP   C_a     0.83; C_b     0.74; C_c     0.24; C_d     0.94; C_e     0.46; C_f     0.78; C_g     0.57; C_h     0.83; C_i     0.33; C_j     0.87; 
@             C_k     0.37; C_l     1.15; N_a    -0.34; N_b     0.59; O_a    -0.81; O_b    -0.82; H_a    -0.37; H_b    -0.61; H_c    -0.59; H_d    -0.58; 
@             H_e    -0.61; H_f    -0.62; H_g    -0.63; H_h    -0.60; H_i    -0.57; H_j    -0.58; H_k    -0.56; H_l    -0.36; H_m    -0.06; H_n    -0.01; 
 -----------------------------------------------------------------------------
   9  Screening settings (-IFTHRS, JTDIIS, DIFDEN, times)  -13    9    T  3.63D+00  3.68D+00
@  9    -721.075027602        3.46120D-03   -1.89D-05    8
      Virial theorem: -V/T =      2.002088
@    MULPOP   C_a     0.83; C_b     0.74; C_c     0.24; C_d     0.94; C_e     0.46; C_f     0.78; C_g     0.58; C_h     0.83; C_i     0.33; C_j     0.87; 
@             C_k     0.37; C_l     1.15; N_a    -0.34; N_b     0.59; O_a    -0.80; O_b    -0.82; H_a    -0.38; H_b    -0.62; H_c    -0.59; H_d    -0.58; 
@             H_e    -0.61; H_f    -0.62; H_g    -0.63; H_h    -0.60; H_i    -0.57; H_j    -0.58; H_k    -0.56; H_l    -0.36; H_m    -0.06; H_n    -0.01; 
 -----------------------------------------------------------------------------
  10  Screening settings (-IFTHRS, JTDIIS, DIFDEN, times)  -13   10    T  3.62D+00  3.67D+00
@ 10    -721.075031461        1.87857D-03   -3.86D-06    8
      Virial theorem: -V/T =      2.002088
@    MULPOP   C_a     0.83; C_b     0.74; C_c     0.25; C_d     0.93; C_e     0.46; C_f     0.78; C_g     0.58; C_h     0.83; C_i     0.33; C_j     0.87; 
@             C_k     0.37; C_l     1.15; N_a    -0.34; N_b     0.59; O_a    -0.80; O_b    -0.82; H_a    -0.38; H_b    -0.62; H_c    -0.59; H_d    -0.58; 
@             H_e    -0.61; H_f    -0.62; H_g    -0.63; H_h    -0.60; H_i    -0.57; H_j    -0.58; H_k    -0.56; H_l    -0.36; H_m    -0.06; H_n    -0.01; 
 -----------------------------------------------------------------------------
  11  Screening settings (-IFTHRS, JTDIIS, DIFDEN, times)  -13   11    T  3.54D+00  3.58D+00
@ 11    -721.075032861        1.04236D-03   -1.40D-06    8
      Virial theorem: -V/T =      2.002089
@    MULPOP   C_a     0.83; C_b     0.74; C_c     0.25; C_d     0.93; C_e     0.47; C_f     0.78; C_g     0.58; C_h     0.83; C_i     0.33; C_j     0.87; 
@             C_k     0.37; C_l     1.15; N_a    -0.34; N_b     0.59; O_a    -0.80; O_b    -0.82; H_a    -0.38; H_b    -0.62; H_c    -0.59; H_d    -0.58; 
@             H_e    -0.61; H_f    -0.62; H_g    -0.63; H_h    -0.60; H_i    -0.57; H_j    -0.58; H_k    -0.56; H_l    -0.36; H_m    -0.06; H_n    -0.01; 
 -----------------------------------------------------------------------------
  12  Screening settings (-IFTHRS, JTDIIS, DIFDEN, times)  -13   12    T  3.57D+00  3.61D+00
@ 12    -721.075033294        3.27184D-04   -4.33D-07    8
      Virial theorem: -V/T =      2.002088
@    MULPOP   C_a     0.83; C_b     0.74; C_c     0.25; C_d     0.93; C_e     0.47; C_f     0.78; C_g     0.58; C_h     0.83; C_i     0.33; C_j     0.87; 
@             C_k     0.37; C_l     1.15; N_a    -0.34; N_b     0.59; O_a    -0.80; O_b    -0.82; H_a    -0.38; H_b    -0.62; H_c    -0.59; H_d    -0.58; 
@             H_e    -0.61; H_f    -0.62; H_g    -0.63; H_h    -0.60; H_i    -0.57; H_j    -0.58; H_k    -0.56; H_l    -0.36; H_m    -0.06; H_n    -0.01; 
 -----------------------------------------------------------------------------
  13  Screening settings (-IFTHRS, JTDIIS, DIFDEN, times)  -13   13    T  3.44D+00  3.49D+00
@ 13    -721.075033334        1.38822D-04   -3.99D-08    8
      Virial theorem: -V/T =      2.002088
@    MULPOP   C_a     0.83; C_b     0.74; C_c     0.25; C_d     0.93; C_e     0.47; C_f     0.78; C_g     0.58; C_h     0.83; C_i     0.33; C_j     0.87; 
@             C_k     0.37; C_l     1.15; N_a    -0.34; N_b     0.59; O_a    -0.80; O_b    -0.82; H_a    -0.38; H_b    -0.62; H_c    -0.59; H_d    -0.58; 
@             H_e    -0.61; H_f    -0.62; H_g    -0.63; H_h    -0.60; H_i    -0.57; H_j    -0.58; H_k    -0.56; H_l    -0.36; H_m    -0.06; H_n    -0.01; 
 -----------------------------------------------------------------------------
  14  Screening settings (-IFTHRS, JTDIIS, DIFDEN, times)  -13   14    T  3.35D+00  3.39D+00
@ 14    -721.075033337        5.21847D-05   -3.32D-09    8
      Virial theorem: -V/T =      2.002088
@    MULPOP   C_a     0.83; C_b     0.74; C_c     0.25; C_d     0.93; C_e     0.47; C_f     0.78; C_g     0.58; C_h     0.83; C_i     0.33; C_j     0.87; 
@             C_k     0.37; C_l     1.15; N_a    -0.34; N_b     0.59; O_a    -0.80; O_b    -0.82; H_a    -0.38; H_b    -0.62; H_c    -0.59; H_d    -0.58; 
@             H_e    -0.61; H_f    -0.62; H_g    -0.63; H_h    -0.60; H_i    -0.57; H_j    -0.58; H_k    -0.56; H_l    -0.36; H_m    -0.06; H_n    -0.01; 
 -----------------------------------------------------------------------------
  15  Screening settings (-IFTHRS, JTDIIS, DIFDEN, times)  -13   15    T  3.29D+00  3.33D+00
@ 15    -721.075033338        2.36448D-05   -5.62D-10    8
      Virial theorem: -V/T =      2.002088
@    MULPOP   C_a     0.83; C_b     0.74; C_c     0.25; C_d     0.93; C_e     0.47; C_f     0.78; C_g     0.58; C_h     0.83; C_i     0.33; C_j     0.87; 
@             C_k     0.38; C_l     1.15; N_a    -0.34; N_b     0.59; O_a    -0.80; O_b    -0.82; H_a    -0.38; H_b    -0.62; H_c    -0.59; H_d    -0.58; 
@             H_e    -0.61; H_f    -0.62; H_g    -0.63; H_h    -0.60; H_i    -0.57; H_j    -0.58; H_k    -0.56; H_l    -0.36; H_m    -0.06; H_n    -0.01; 
 -----------------------------------------------------------------------------
  16  Screening settings (-IFTHRS, JTDIIS, DIFDEN, times)  -13   16    T  3.25D+00  3.29D+00
@ 16    -721.075033338        1.01513D-05   -7.16D-11    8
      Virial theorem: -V/T =      2.002088
@    MULPOP   C_a     0.83; C_b     0.74; C_c     0.25; C_d     0.93; C_e     0.47; C_f     0.78; C_g     0.58; C_h     0.83; C_i     0.33; C_j     0.87; 
@             C_k     0.38; C_l     1.15; N_a    -0.34; N_b     0.59; O_a    -0.80; O_b    -0.82; H_a    -0.38; H_b    -0.62; H_c    -0.59; H_d    -0.58; 
@             H_e    -0.61; H_f    -0.62; H_g    -0.63; H_h    -0.60; H_i    -0.57; H_j    -0.58; H_k    -0.56; H_l    -0.36; H_m    -0.06; H_n    -0.01; 
 -----------------------------------------------------------------------------
  17  Screening settings (-IFTHRS, JTDIIS, DIFDEN, times)  -13   17    T  3.27D+00  3.31D+00
@ 17    -721.075033338        6.24798D-06   -2.80D-11    8

@ *** DIIS converged in  17 iterations !
@     Converged SCF energy, gradient:   -721.075033337803    6.25D-06
    - total time used in SIRFCK :              0.00 seconds


 *** SCF orbital energy analysis ***

 Only the 20 lowest virtual orbital energies printed in each symmetry.

 Number of electrons :  116
 Orbital occupations :   58

 Sym       Hartree-Fock orbital energies

1 A     -20.59343670   -20.59069719   -15.84110235   -15.60781538   -11.31807851
        -11.29139172   -11.28900451   -11.28051015   -11.27248006   -11.26935054
        -11.26743908   -11.25892557   -11.25290337   -11.24785299   -11.24236239
        -11.23964279    -1.57970582    -1.37724851    -1.24790293    -1.14116271
         -1.12272791    -1.10131317    -1.07021216    -1.03049450    -0.98348976
         -0.93821455    -0.87180277    -0.82501457    -0.79514436    -0.78226443
         -0.77217896    -0.76629636    -0.73279794    -0.72583617    -0.70996215
         -0.69247512    -0.68895025    -0.65970580    -0.65142075    -0.62622282
         -0.60175491    -0.59122362    -0.56952034    -0.54930975    -0.54715570
         -0.53146900    -0.53052538    -0.51887288    -0.50853754    -0.49224952
         -0.47725496    -0.47370533    -0.46648241    -0.43604088    -0.42776361
         -0.37635447    -0.31454992    -0.24897764     0.01805937     0.01829425
          0.02621966     0.03475821     0.03608925     0.04208305     0.05004291
          0.05719583     0.06654432     0.07589772     0.07598876     0.08592691
          0.09344614     0.09615783     0.10018666     0.10079519     0.10603479
          0.10610963     0.10859155     0.11240705

    E(LUMO) :     0.01805937 au (symmetry 1)
  - E(HOMO) :    -0.24897764 au (symmetry 1)
  ------------------------------------------
    gap     :     0.26703701 au

 --- Writing SIRIFC interface file

 CPU and wall time for SCF :      79.280      80.374


                       .-----------------------------------.
                       | --- Final results from SIRIUS --- |
                       `-----------------------------------'


@    Spin multiplicity:           1
@    Spatial symmetry:            1 ( irrep  A   in C1  )
@    Total charge of molecule:    0

@    Final HF energy:            -721.075033337803                 
@    Nuclear repulsion:           839.879465627210
@    Electronic energy:         -1560.954498965013

@    Final gradient norm:           0.000006247982

 
     Date and time (Linux)  : Tue May 20 14:26:21 2025
     Host name              : xm045                                   

File label for MO orbitals:  20May25   FOCKDIIS

 (Only coefficients > 0.0100 are printed.)

 Molecular orbitals for symmetry species 1  (A  )
 ------------------------------------------------

    Orbital        49       50       51       52       53       54       55
   3 C_a :1s    -0.0690  -0.0000   0.0077   0.0048  -0.0000  -0.0000   0.0000
   4 C_a :1s    -0.0334   0.0000   0.0013   0.0102  -0.0000   0.0000  -0.0000
   5 C_a :2px   -0.0290  -0.0000   0.0005   0.0001  -0.0000  -0.0000   0.0000
   7 C_a :2pz   -0.0000   0.0343   0.0000  -0.0000   0.0319  -0.0013   0.0290
   8 C_a :2px    0.0218  -0.0000  -0.0046  -0.0003  -0.0000  -0.0000   0.0000
   9 C_a :2py    0.0475   0.0000  -0.0050  -0.0012   0.0000   0.0000  -0.0000
  10 C_a :2pz    0.0000  -0.0072   0.0000   0.0000  -0.0116  -0.0012   0.0111
  12 C_a :2py    0.0071   0.0000   0.0154  -0.0050  -0.0000  -0.0000  -0.0000
  15 C_a :3d1-  -0.0000   0.0045  -0.0000  -0.0000   0.0125   0.0017  -0.0197
  25 C_b :1s     0.0567   0.0000   0.0029   0.0003   0.0000   0.0000  -0.0000
  27 C_b :1s     0.0751   0.0000   0.0154   0.0004   0.0000   0.0000  -0.0000
  28 C_b :2px    0.1686   0.0000   0.0035   0.0006   0.0000   0.0000  -0.0000
  29 C_b :2py   -0.0893  -0.0000  -0.0060  -0.0010  -0.0000  -0.0000   0.0000
  30 C_b :2pz    0.0000  -0.0200   0.0000   0.0000  -0.1068  -0.0178   0.2174
  31 C_b :2px   -0.0555   0.0000  -0.0013   0.0025   0.0000   0.0000  -0.0000
  32 C_b :2py    0.1297   0.0000  -0.0090  -0.0069   0.0000   0.0000  -0.0000
  33 C_b :2pz   -0.0000   0.0039  -0.0000  -0.0000   0.0113   0.0012  -0.0129
  34 C_b :2px    0.0146   0.0000  -0.0006   0.0011   0.0000   0.0000  -0.0000
  35 C_b :2py    0.0105  -0.0000  -0.0403  -0.0027   0.0000  -0.0000   0.0000
  41 C_b :3d2+  -0.0130   0.0000   0.0001   0.0000   0.0000   0.0000  -0.0000
  42 C_b :3d2-   0.0398   0.0000  -0.0009  -0.0017   0.0000   0.0000  -0.0000
  48 C_c :1s     0.0439   0.0000  -0.0025  -0.0006   0.0000   0.0000  -0.0000
  49 C_c :1s     0.1247  -0.0000  -0.0018   0.0032  -0.0000  -0.0000   0.0000
  50 C_c :1s    -0.0238   0.0000  -0.0497   0.0262   0.0000   0.0000  -0.0000
  51 C_c :2px   -0.2431  -0.0000  -0.0026  -0.0004  -0.0000  -0.0000   0.0000
  53 C_c :2pz    0.0000  -0.0924   0.0000   0.0000  -0.2558  -0.0283   0.3117
  54 C_c :2px   -0.0353  -0.0000   0.0022   0.0053  -0.0000  -0.0000   0.0000
  55 C_c :2py    0.1466   0.0000  -0.0066  -0.0115   0.0000   0.0000  -0.0000
  56 C_c :2pz   -0.0000   0.0098  -0.0000  -0.0000   0.0186   0.0022  -0.0176
  57 C_c :2px    0.0285  -0.0000  -0.0151   0.0020  -0.0000  -0.0000   0.0000
  58 C_c :2py   -0.0199  -0.0000   0.0672  -0.0097  -0.0000  -0.0000  -0.0000
  60 C_c :3d2-  -0.0198   0.0000  -0.0008  -0.0001   0.0000   0.0000  -0.0000
  61 C_c :3d1-   0.0000   0.0060  -0.0000   0.0000   0.0118   0.0007  -0.0060
  64 C_c :3d2+  -0.0226   0.0000  -0.0003  -0.0001   0.0000   0.0000  -0.0000
  65 C_c :3d2-   0.0129   0.0000   0.0035   0.0035   0.0000   0.0000  -0.0000
  69 C_c :3d2+   0.0698   0.0000  -0.0015  -0.0021   0.0000   0.0000  -0.0000
  71 C_d :1s     0.0644   0.0000   0.0048   0.0007   0.0000   0.0000  -0.0000
  72 C_d :1s     0.2591   0.0000  -0.0015  -0.0124   0.0000   0.0000  -0.0000
  73 C_d :1s     0.0570   0.0000   0.0490  -0.0229   0.0000   0.0000  -0.0000
  74 C_d :2px    0.3529   0.0000   0.0089   0.0011   0.0000   0.0000  -0.0000
  75 C_d :2py   -0.0542   0.0000  -0.0130  -0.0021   0.0000   0.0000  -0.0000
  76 C_d :2pz    0.0000  -0.1434   0.0000  -0.0000  -0.3212  -0.0265   0.2629
  77 C_d :2px    0.0129   0.0000   0.0013  -0.0054   0.0000   0.0000  -0.0000
  78 C_d :2py    0.0741   0.0000  -0.0063  -0.0103   0.0000   0.0000  -0.0000
  79 C_d :2pz    0.0000   0.0093   0.0000  -0.0000   0.0145  -0.0007   0.0012
  80 C_d :2px   -0.0303   0.0000   0.0270  -0.0038   0.0000   0.0000  -0.0000
  81 C_d :2py    0.0167  -0.0000  -0.0914  -0.0171  -0.0000   0.0000   0.0000
  83 C_d :3d2-  -0.0191   0.0000  -0.0008  -0.0001   0.0000  -0.0000  -0.0000
  84 C_d :3d1-   0.0000   0.0014   0.0000   0.0000  -0.0031  -0.0010   0.0137
  86 C_d :3d1+  -0.0000  -0.0066  -0.0000   0.0000  -0.0122  -0.0007   0.0061
  87 C_d :3d2+  -0.0277   0.0000   0.0001   0.0001   0.0000   0.0000  -0.0000
  88 C_d :3d2-   0.0684   0.0000   0.0000  -0.0024   0.0000   0.0000  -0.0000
  92 C_d :3d2+   0.0968   0.0000  -0.0035  -0.0029   0.0000   0.0000  -0.0000
  94 C_e :1s     0.0774   0.0000  -0.0038  -0.0012   0.0000   0.0000  -0.0000
  95 C_e :1s     0.3008   0.0000  -0.0093  -0.0261   0.0000   0.0000  -0.0000
  96 C_e :1s     0.0628  -0.0000   0.0430   0.0546  -0.0000   0.0000   0.0000
  97 C_e :2px   -0.3516  -0.0000  -0.0069  -0.0002  -0.0000  -0.0000   0.0000
  98 C_e :2py    0.0518   0.0000   0.0181   0.0039   0.0000  -0.0000  -0.0000
  99 C_e :2pz   -0.0000  -0.2087  -0.0000  -0.0000  -0.3174  -0.0086   0.0202
 100 C_e :2px   -0.0388  -0.0000   0.0050   0.0070  -0.0000  -0.0000   0.0000
 101 C_e :2py   -0.0796   0.0000   0.0035   0.0073   0.0000   0.0000  -0.0000
 102 C_e :2pz    0.0000   0.0166  -0.0000   0.0000   0.0229   0.0016  -0.0108
 103 C_e :2px    0.0311   0.0000  -0.0448  -0.0183   0.0000  -0.0000   0.0000
 104 C_e :2py   -0.0169  -0.0000   0.1212  -0.0121  -0.0000  -0.0000  -0.0000
 106 C_e :3d2-  -0.0220   0.0000  -0.0016  -0.0002   0.0000   0.0000  -0.0000
 107 C_e :3d1-   0.0000   0.0076   0.0000   0.0000   0.0033  -0.0011   0.0150
 109 C_e :3d1+  -0.0000   0.0068  -0.0000   0.0000   0.0114   0.0006  -0.0044
 110 C_e :3d2+  -0.0296   0.0000  -0.0004   0.0000   0.0000   0.0000  -0.0000
 111 C_e :3d2-   0.0812  -0.0000   0.0066  -0.0024   0.0000   0.0000  -0.0000
 115 C_e :3d2+   0.0974   0.0000  -0.0003  -0.0054   0.0000   0.0000  -0.0000
 117 C_f :1s     0.0481   0.0000   0.0094   0.0022   0.0000   0.0000  -0.0000
 118 C_f :1s     0.1895   0.0000   0.0156  -0.0279   0.0000   0.0000  -0.0000
 119 C_f :1s     0.0075   0.0000  -0.1477   0.0281  -0.0000  -0.0000   0.0000
 120 C_f :2px    0.2974   0.0000   0.0177   0.0015   0.0000   0.0000  -0.0000
 121 C_f :2py   -0.0137   0.0000  -0.0257  -0.0050   0.0000   0.0000  -0.0000
 122 C_f :2pz   -0.0000  -0.2548  -0.0000  -0.0000  -0.2668   0.0067  -0.1547
 123 C_f :2px    0.0660   0.0000   0.0080  -0.0200   0.0000   0.0000  -0.0000
 124 C_f :2py   -0.1826   0.0000   0.0101   0.0318   0.0000   0.0000  -0.0000
 125 C_f :2pz    0.0000   0.0196   0.0000   0.0000   0.0095   0.0003   0.0113
 126 C_f :2px   -0.0308   0.0000  -0.0106   0.0202  -0.0000  -0.0000  -0.0000
 127 C_f :2py   -0.0039  -0.0000  -0.2110  -0.0498  -0.0000  -0.0000   0.0000
 129 C_f :3d2-  -0.0231   0.0000  -0.0016  -0.0002   0.0000  -0.0000  -0.0000
 130 C_f :3d1-  -0.0000  -0.0014  -0.0000   0.0000  -0.0113  -0.0010   0.0088
 132 C_f :3d1+  -0.0000  -0.0107  -0.0000  -0.0000  -0.0079   0.0005  -0.0077
 133 C_f :3d2+  -0.0238   0.0000   0.0003   0.0003   0.0000   0.0000  -0.0000
 134 C_f :3d2-   0.0200   0.0000   0.0080   0.0093   0.0000   0.0000  -0.0000
 138 C_f :3d2+   0.1008   0.0000   0.0010  -0.0054   0.0000   0.0000  -0.0000
 140 C_g :1s     0.0716   0.0000  -0.0097  -0.0008   0.0000   0.0000  -0.0000
 141 C_g :1s     0.0984   0.0000   0.0576   0.0145   0.0000   0.0000   0.0000
 142 C_g :1s     0.0412   0.0000   0.1239  -0.1474   0.0000  -0.0000  -0.0000
 143 C_g :2px   -0.2430  -0.0000  -0.0133  -0.0008  -0.0000  -0.0000   0.0000
 144 C_g :2py    0.0838  -0.0000   0.0369   0.0057  -0.0000  -0.0000   0.0000
 145 C_g :2pz   -0.0000  -0.3029   0.0000  -0.0000  -0.1100   0.0250  -0.3029
 146 C_g :2px    0.0675  -0.0000  -0.0263  -0.0335  -0.0000  -0.0000   0.0000
 147 C_g :2py   -0.2213   0.0000  -0.0265   0.0458  -0.0000   0.0000  -0.0000
 148 C_g :2pz    0.0000   0.0230   0.0000   0.0000   0.0121  -0.0049   0.0097
 149 C_g :2px    0.0019  -0.0000  -0.1254   0.0628  -0.0000  -0.0000   0.0000
 150 C_g :2py   -0.0025  -0.0000   0.2844  -0.0319  -0.0000   0.0000  -0.0000
 151 C_g :2pz   -0.0000  -0.0010   0.0000  -0.0000  -0.0055   0.0025  -0.0151
 152 C_g :3d2-  -0.0140  -0.0000  -0.0030  -0.0008  -0.0000  -0.0000   0.0000
 155 C_g :3d1+   0.0000   0.0104   0.0000   0.0000   0.0065  -0.0006   0.0079
 156 C_g :3d2+  -0.0189   0.0000  -0.0006  -0.0001   0.0000   0.0000  -0.0000
 157 C_g :3d2-   0.0797   0.0000   0.0242  -0.0039   0.0000   0.0000  -0.0000
 161 C_g :3d2+   0.0145   0.0000   0.0037   0.0099   0.0000   0.0000  -0.0000
 163 C_h :1s     0.0170   0.0000   0.0162   0.0060   0.0000   0.0000  -0.0000
 164 C_h :1s    -0.0520   0.0000   0.0609   0.0960   0.0000  -0.0000   0.0000
 165 C_h :1s     0.0076  -0.0000   0.1332   0.1264   0.0000   0.0000  -0.0000
 166 C_h :2px    0.1356   0.0000   0.0308   0.0124   0.0000   0.0000  -0.0000
 167 C_h :2py   -0.0180   0.0000  -0.0491  -0.0133   0.0000   0.0000  -0.0000
 168 C_h :2pz    0.0000  -0.3300  -0.0000   0.0000   0.0169   0.0282  -0.2867
 169 C_h :2px   -0.0057   0.0000   0.0381   0.0451   0.0000   0.0000  -0.0000
 170 C_h :2py   -0.1829   0.0000  -0.0662   0.0156   0.0000   0.0000  -0.0000
 171 C_h :2pz   -0.0000   0.0220  -0.0000  -0.0000  -0.0056   0.0038   0.0037
 172 C_h :2px    0.0060   0.0000   0.1254   0.0224   0.0000   0.0000  -0.0000
 173 C_h :2py   -0.0171  -0.0000  -0.3367   0.1122  -0.0000  -0.0000   0.0000
 175 C_h :3d2-  -0.0152   0.0000  -0.0032  -0.0010   0.0000   0.0000  -0.0000
 176 C_h :3d1-  -0.0000  -0.0051  -0.0000  -0.0000  -0.0098   0.0006  -0.0126
 178 C_h :3d1+   0.0000  -0.0129   0.0000  -0.0000   0.0034   0.0008  -0.0066
 179 C_h :3d2+  -0.0108   0.0000   0.0013  -0.0011   0.0000   0.0000  -0.0000
 180 C_h :3d2-  -0.0192   0.0000   0.0048   0.0119   0.0000   0.0000  -0.0000
 184 C_h :3d2+   0.0234   0.0000   0.0191   0.0218   0.0000   0.0000  -0.0000
 186 C_i :1s     0.0438   0.0000  -0.0241   0.0046   0.0000   0.0000  -0.0000
 187 C_i :1s    -0.0644   0.0000   0.0534   0.1535  -0.0000  -0.0000  -0.0000
 188 C_i :1s     0.0007  -0.0000  -0.3575   0.1311   0.0000   0.0000   0.0000
 189 C_i :2px   -0.1019  -0.0000  -0.0159  -0.0234  -0.0000  -0.0000   0.0000
 190 C_i :2py    0.0651  -0.0000   0.0824  -0.0033  -0.0000   0.0000   0.0000
 191 C_i :2pz    0.0000  -0.3302   0.0000   0.0000   0.1946   0.0147  -0.0596
 192 C_i :2px    0.0791  -0.0000   0.0028  -0.0320  -0.0000  -0.0000   0.0000
 193 C_i :2py   -0.0730  -0.0000  -0.1349  -0.1048  -0.0000  -0.0000  -0.0000
 194 C_i :2pz   -0.0000   0.0284  -0.0000  -0.0000  -0.0094  -0.0006   0.0086
 195 C_i :2px   -0.0045  -0.0000   0.0560   0.0489  -0.0000  -0.0000  -0.0000
 196 C_i :2py   -0.0045   0.0000   0.2477  -0.2197  -0.0000  -0.0000  -0.0000
 199 C_i :3d1-   0.0000   0.0058  -0.0000   0.0000  -0.0128   0.0007  -0.0138
 201 C_i :3d1+  -0.0000   0.0120   0.0000  -0.0000  -0.0038  -0.0008   0.0061
 203 C_i :3d2-   0.0211   0.0000   0.0467   0.0436   0.0000   0.0000  -0.0000
 207 C_i :3d2+  -0.0265   0.0000  -0.0198   0.0187   0.0000   0.0000  -0.0000
 209 C_j :1s    -0.0059   0.0000   0.0350   0.0059   0.0000   0.0000  -0.0000
 210 C_j :1s    -0.0519  -0.0000  -0.1092   0.0831  -0.0000   0.0000  -0.0000
 211 C_j :1s     0.0087   0.0000   0.2090  -0.2801   0.0000  -0.0000   0.0000
 212 C_j :2px    0.0313   0.0000   0.0427   0.0598   0.0000  -0.0000  -0.0000
 213 C_j :2py   -0.0202   0.0000  -0.1043  -0.0098   0.0000   0.0000  -0.0000
 214 C_j :2pz    0.0000  -0.3142   0.0000   0.0000   0.2762   0.0031   0.1162
 215 C_j :2px   -0.0314  -0.0000  -0.0217   0.0795   0.0000   0.0000  -0.0000
 216 C_j :2py   -0.0178   0.0000  -0.1098  -0.2007   0.0000   0.0000  -0.0000
 217 C_j :2pz   -0.0000   0.0163  -0.0000  -0.0000  -0.0122  -0.0156  -0.0102
 218 C_j :2px    0.0129   0.0000   0.0768  -0.1061   0.0000  -0.0000  -0.0000
 219 C_j :2py   -0.0216  -0.0000  -0.0326   0.0997  -0.0000  -0.0000   0.0000
 224 C_j :3d1+  -0.0000  -0.0108  -0.0000  -0.0000   0.0104  -0.0002   0.0070
 226 C_j :3d2-  -0.0048   0.0000  -0.0100  -0.0274   0.0000   0.0000  -0.0000
 230 C_j :3d2+  -0.0126  -0.0000  -0.0037   0.0375   0.0000  -0.0000  -0.0000
 232 C_k :1s     0.0219   0.0000  -0.0193  -0.0534  -0.0000   0.0000   0.0000
 233 C_k :1s    -0.0038  -0.0000  -0.1790  -0.0837   0.0000   0.0000  -0.0000
 234 C_k :1s    -0.0070  -0.0000   0.1542   0.3721  -0.0000   0.0000  -0.0000
 235 C_k :2px   -0.0268   0.0000  -0.0151  -0.0710   0.0000   0.0000  -0.0000
 236 C_k :2py    0.0255   0.0000   0.1495   0.0524   0.0000   0.0000  -0.0000
 237 C_k :2pz   -0.0000  -0.2295  -0.0000  -0.0000   0.2749  -0.0160   0.2853
 238 C_k :2px    0.0095  -0.0000   0.0501   0.1533  -0.0000   0.0000  -0.0000
 239 C_k :2py    0.0155   0.0000   0.0496  -0.1427   0.0000   0.0000   0.0000
 240 C_k :2pz    0.0000   0.0240   0.0000   0.0000  -0.0225   0.0346  -0.0101
 241 C_k :2px    0.0042   0.0000  -0.0270  -0.0285   0.0000   0.0000   0.0000
 242 C_k :2py   -0.0111  -0.0000  -0.0199  -0.1630  -0.0000  -0.0000   0.0000
 244 C_k :3d2-  -0.0010  -0.0000  -0.0121  -0.0029   0.0000  -0.0000  -0.0000
 245 C_k :3d1-   0.0000  -0.0004  -0.0000   0.0000  -0.0037   0.0003  -0.0117
 247 C_k :3d1+  -0.0000   0.0104  -0.0000  -0.0000  -0.0105  -0.0003  -0.0075
 249 C_k :3d2-  -0.0006  -0.0000  -0.0063   0.0412  -0.0000  -0.0000   0.0000
 252 C_k :3d1+   0.0000  -0.0022   0.0000   0.0000   0.0018  -0.0133   0.0008
 253 C_k :3d2+  -0.0079   0.0000  -0.0236  -0.0256  -0.0000  -0.0000   0.0000
 255 C_l :1s    -0.0153   0.0000   0.0988  -0.0053  -0.0000  -0.0000  -0.0000
 256 C_l :1s     0.0076   0.0000   0.0304  -0.1262   0.0000   0.0000   0.0000
 257 C_l :1s    -0.0353  -0.0000  -0.2398  -0.3017  -0.0000  -0.0000   0.0000
 258 C_l :2px   -0.0111  -0.0000   0.2156  -0.1364  -0.0000   0.0000  -0.0000
 259 C_l :2py   -0.0006  -0.0000  -0.2417  -0.0156  -0.0000  -0.0000   0.0000
 260 C_l :2pz   -0.0000  -0.1643  -0.0000  -0.0000   0.2258  -0.0060   0.2954
 261 C_l :2px    0.0062   0.0000  -0.0544   0.0514  -0.0000  -0.0000   0.0000
 262 C_l :2py    0.0040   0.0000   0.1653   0.0024   0.0000   0.0000  -0.0000
 263 C_l :2pz    0.0000   0.0072   0.0000   0.0000  -0.0057  -0.0100  -0.0037
 264 C_l :2px   -0.0029  -0.0000  -0.0383  -0.0408  -0.0000  -0.0000   0.0000
 265 C_l :2py   -0.0094  -0.0000  -0.0297  -0.0282  -0.0000  -0.0000   0.0000
 266 C_l :2pz   -0.0000  -0.0116   0.0000  -0.0000   0.0151  -0.0050   0.0201
 267 C_l :3d2-  -0.0010  -0.0000  -0.0227   0.0021   0.0000   0.0000   0.0000
 268 C_l :3d1-  -0.0000  -0.0109  -0.0000  -0.0000   0.0131  -0.0030   0.0135
 272 C_l :3d2-   0.0003   0.0000   0.0395  -0.0319  -0.0000  -0.0000   0.0000
 273 C_l :3d1-  -0.0000  -0.0062   0.0000  -0.0000   0.0100  -0.0280   0.0100
 275 C_l :3d1+   0.0000   0.0012   0.0000   0.0000  -0.0016  -0.0117  -0.0045
 276 C_l :3d2+  -0.0012   0.0000  -0.0427  -0.0120  -0.0000  -0.0000   0.0000
 278 N_a :1s     0.0181   0.0000   0.0010   0.0002   0.0000   0.0000  -0.0000
 281 N_a :2px    0.0126   0.0000   0.0004   0.0001   0.0000   0.0000  -0.0000
 282 N_a :2py   -0.0317   0.0000  -0.0020  -0.0003  -0.0000  -0.0000   0.0000
 283 N_a :2pz   -0.0000   0.0968  -0.0000  -0.0000   0.2022   0.0218  -0.2472
 286 N_a :2pz    0.0000   0.0073   0.0000   0.0000   0.0161   0.0019  -0.0219
 289 N_a :2pz   -0.0000   0.0092  -0.0000  -0.0000   0.0220   0.0028  -0.0332
 301 N_b :1s     0.0038  -0.0000   0.0213  -0.0019   0.0000  -0.0000   0.0000
 302 N_b :1s    -0.0005   0.0000   0.0622  -0.0215  -0.0000   0.0000  -0.0000
 303 N_b :1s     0.0090   0.0000   0.0967   0.0309  -0.0000   0.0000  -0.0000
 304 N_b :2px    0.0059  -0.0000  -0.2146  -0.0205   0.0000  -0.0000   0.0000
 305 N_b :2py    0.0010  -0.0000   0.1866  -0.1093  -0.0000  -0.0000  -0.0000
 306 N_b :2pz   -0.0000   0.0317  -0.0000  -0.0000  -0.0332   0.0090  -0.0255
 307 N_b :2px    0.0016   0.0000  -0.0192   0.0420   0.0000   0.0000  -0.0000
 308 N_b :2py   -0.0031   0.0000   0.0391   0.0289   0.0000   0.0000   0.0000
 310 N_b :2px   -0.0021  -0.0000  -0.0358   0.0037   0.0000  -0.0000   0.0000
 311 N_b :2py    0.0047   0.0000   0.0341   0.0005   0.0000  -0.0000  -0.0000
 312 N_b :2pz   -0.0000   0.0145  -0.0000  -0.0000  -0.0163   0.0011  -0.0165
 313 N_b :3d2-   0.0029   0.0000  -0.0609   0.0144  -0.0000   0.0000  -0.0000
 314 N_b :3d1-  -0.0000  -0.0052   0.0000  -0.0000   0.0074  -0.0401   0.0053
 316 N_b :3d1+   0.0000   0.0040   0.0000   0.0000  -0.0052  -0.0402  -0.0112
 317 N_b :3d2+   0.0015   0.0000  -0.0091  -0.0431   0.0000  -0.0000   0.0000
 318 N_b :3d2-   0.0021   0.0000  -0.0242   0.0033   0.0000   0.0000  -0.0000
 320 N_b :3d0   -0.0003  -0.0000   0.0109  -0.0022  -0.0000  -0.0000   0.0000
 322 N_b :3d2+   0.0001   0.0000   0.0040   0.0245   0.0000  -0.0000   0.0000
 325 O_a :1s    -0.0026  -0.0000   0.0388  -0.0253  -0.0000  -0.0000   0.0000
 326 O_a :1s    -0.0033  -0.0000   0.0351  -0.0161  -0.0000   0.0000   0.0000
 327 O_a :2px   -0.0157  -0.0000   0.3478  -0.1372  -0.0000   0.0000   0.0000
 328 O_a :2py    0.0062  -0.0000  -0.3148   0.7635   0.0000   0.0000   0.0000
 329 O_a :2pz    0.0000   0.0508   0.0000   0.0000  -0.0607  -0.6401  -0.1451
 330 O_a :2px    0.0011   0.0000  -0.0103  -0.0005   0.0000  -0.0000  -0.0000
 331 O_a :2py    0.0005   0.0000  -0.0263   0.0520   0.0000  -0.0000  -0.0000
 332 O_a :2pz   -0.0000   0.0015  -0.0000  -0.0000  -0.0020  -0.0505  -0.0092
 333 O_a :2px    0.0003  -0.0000   0.0123  -0.0101  -0.0000   0.0000   0.0000
 334 O_a :2py   -0.0009  -0.0000  -0.0362   0.0636   0.0000   0.0000   0.0000
 335 O_a :2pz    0.0000  -0.0017   0.0000   0.0000   0.0014  -0.0661  -0.0081
 336 O_a :3d2-   0.0001   0.0000  -0.0001  -0.0112   0.0000   0.0000   0.0000
 339 O_a :3d1+   0.0000  -0.0015   0.0000   0.0000   0.0017   0.0132   0.0033
 341 O_a :3d2-   0.0000  -0.0000   0.0057  -0.0294  -0.0000   0.0000  -0.0000
 344 O_a :3d1+  -0.0000  -0.0019  -0.0000  -0.0000   0.0021   0.0283   0.0056
 348 O_b :1s    -0.0018   0.0000   0.0450   0.0089   0.0000  -0.0000   0.0000
 349 O_b :1s    -0.0006   0.0000   0.0162  -0.0086   0.0000  -0.0000   0.0000
 350 O_b :2px   -0.0414   0.0000   0.6055   0.5605   0.0000   0.0000  -0.0000
 351 O_b :2py    0.0144  -0.0000  -0.3844   0.0228  -0.0000   0.0000  -0.0000
 352 O_b :2pz    0.0000   0.0637   0.0000   0.0000  -0.0892   0.6460  -0.0421
 353 O_b :2px   -0.0016   0.0000   0.0433   0.0323   0.0000  -0.0000   0.0000
 355 O_b :2pz   -0.0000   0.0036  -0.0000  -0.0000  -0.0053   0.0504  -0.0016
 356 O_b :2px   -0.0022   0.0000   0.0545   0.0454   0.0000   0.0000  -0.0000
 357 O_b :2py    0.0002  -0.0000  -0.0234  -0.0067  -0.0000   0.0000  -0.0000
 358 O_b :2pz    0.0000   0.0004   0.0000   0.0000  -0.0025   0.0654   0.0012
 359 O_b :3d2-  -0.0006  -0.0000   0.0043   0.0102   0.0000  -0.0000   0.0000
 360 O_b :3d1-  -0.0000   0.0018  -0.0000  -0.0000  -0.0023   0.0136  -0.0011
 364 O_b :3d2-  -0.0012   0.0000   0.0170   0.0236   0.0000  -0.0000   0.0000
 365 O_b :3d1-   0.0000   0.0034   0.0000   0.0000  -0.0044   0.0294  -0.0019
 368 O_b :3d2+  -0.0005   0.0000   0.0115   0.0026  -0.0000  -0.0000  -0.0000
 369 H_a :1s    -0.0475  -0.0000  -0.0003  -0.0001  -0.0000  -0.0000   0.0000
 378 H_b :1s    -0.1523  -0.0000  -0.0012  -0.0002  -0.0000  -0.0000   0.0000
 379 H_b :1s    -0.0165   0.0000  -0.0047   0.0010   0.0000   0.0000  -0.0000
 384 H_b :2px   -0.0152  -0.0000  -0.0011   0.0001  -0.0000  -0.0000   0.0000
 387 H_c :1s    -0.2717  -0.0000  -0.0032  -0.0005  -0.0000  -0.0000   0.0000
 388 H_c :1s    -0.0535   0.0000   0.0008  -0.0044   0.0000   0.0000  -0.0000
 389 H_c :1s    -0.0143   0.0000   0.0043  -0.0091  -0.0000  -0.0000  -0.0000
 393 H_c :2px    0.0352   0.0000   0.0010   0.0017   0.0000   0.0000  -0.0000
 396 H_d :1s    -0.3615  -0.0000  -0.0040  -0.0002  -0.0000  -0.0000   0.0000
 397 H_d :1s    -0.0906   0.0000   0.0057  -0.0001   0.0000   0.0000  -0.0000
 398 H_d :1s    -0.0204  -0.0000   0.0159   0.0020   0.0000   0.0000  -0.0000
 402 H_d :2px   -0.0479  -0.0000   0.0012  -0.0003  -0.0000  -0.0000   0.0000
 405 H_e :1s    -0.3596  -0.0000  -0.0071  -0.0000  -0.0000  -0.0000   0.0000
 406 H_e :1s    -0.0952  -0.0000  -0.0090   0.0037  -0.0000   0.0000  -0.0000
 407 H_e :1s    -0.0244  -0.0000  -0.0147   0.0307  -0.0000   0.0000   0.0000
 411 H_e :2px    0.0504   0.0000   0.0047  -0.0004   0.0000   0.0000  -0.0000
 414 H_f :1s    -0.3212  -0.0000  -0.0078   0.0005  -0.0000  -0.0000   0.0000
 415 H_f :1s    -0.0744  -0.0000   0.0049  -0.0075  -0.0000   0.0000   0.0000
 416 H_f :1s    -0.0210  -0.0000  -0.0337  -0.0053  -0.0000  -0.0000   0.0000
 420 H_f :2px   -0.0420  -0.0000   0.0010  -0.0026  -0.0000  -0.0000   0.0000
 423 H_g :1s    -0.2247  -0.0000  -0.0125  -0.0013  -0.0000  -0.0000   0.0000
 424 H_g :1s    -0.0439  -0.0000  -0.0050   0.0088   0.0000  -0.0000  -0.0000
 425 H_g :1s    -0.0029   0.0000   0.0473  -0.0486  -0.0000  -0.0000  -0.0000
 429 H_g :2px    0.0300   0.0000   0.0044  -0.0026   0.0000   0.0000  -0.0000
 432 H_h :1s    -0.1520  -0.0000  -0.0101  -0.0083  -0.0000  -0.0000   0.0000
 433 H_h :1s    -0.0168   0.0000  -0.0186  -0.0110   0.0000   0.0000  -0.0000
 434 H_h :1s     0.0009   0.0000   0.0310   0.0281   0.0000   0.0000  -0.0000
 438 H_h :2px   -0.0189  -0.0000  -0.0063  -0.0028  -0.0000  -0.0000   0.0000
 441 H_i :1s    -0.0767  -0.0000  -0.0104  -0.0288  -0.0000  -0.0000   0.0000
 442 H_i :1s     0.0006   0.0000   0.0169  -0.0265   0.0000   0.0000  -0.0000
 443 H_i :1s     0.0023  -0.0000  -0.0832   0.0463  -0.0000   0.0000   0.0000
 448 H_i :2py   -0.0062   0.0000  -0.0178  -0.0042   0.0000   0.0000  -0.0000
 450 H_j :1s    -0.0395  -0.0000   0.0059  -0.0577  -0.0000   0.0000   0.0000
 451 H_j :1s     0.0057  -0.0000  -0.0235  -0.0047   0.0000  -0.0000  -0.0000
 452 H_j :1s     0.0017  -0.0000  -0.0008  -0.0432   0.0000  -0.0000   0.0000
 457 H_j :2py    0.0056   0.0000   0.0112   0.0019   0.0000   0.0000  -0.0000
 459 H_k :1s    -0.0088   0.0000  -0.0124  -0.0497   0.0000   0.0000  -0.0000
 460 H_k :1s     0.0064  -0.0000  -0.0187  -0.0775  -0.0000  -0.0000   0.0000
 461 H_k :1s    -0.0016   0.0000   0.0561  -0.0069  -0.0000  -0.0000  -0.0000
 465 H_k :2px    0.0005   0.0000   0.0076   0.0354  -0.0000   0.0000  -0.0000
 468 H_l :1s     0.0011  -0.0000  -0.0810   0.1359   0.0000   0.0000  -0.0000
 469 H_l :1s     0.0063   0.0000   0.0417   0.0631  -0.0000   0.0000  -0.0000
 474 H_l :2px    0.0010   0.0000  -0.0011   0.0229   0.0000   0.0000  -0.0000
 475 H_l :2py    0.0016  -0.0000   0.0292   0.0145  -0.0000   0.0000   0.0000
 478 H_m :1s     0.0105  -0.0000   0.0001   0.0001   0.0000   0.0000   0.0000
 486 H_n :1s    -0.0179   0.0000  -0.0016  -0.0003  -0.0000  -0.0000   0.0000

    Orbital        56       57       58       59       60       61       62
   2 C_a :1s    -0.0000   0.0000   0.0000   0.0419  -0.0000   0.0402  -0.0178
   3 C_a :1s     0.0000  -0.0000  -0.0000  -0.7538   0.0000  -0.0287   0.3047
   4 C_a :1s     0.0000   0.0000   0.0000   0.2942   0.0000 -11.5622   8.8585
   5 C_a :2px    0.0000  -0.0000  -0.0000   0.0659   0.0000   0.0379  -0.0061
   6 C_a :2py    0.0000  -0.0000  -0.0000  -0.0139   0.0000   0.0166   0.0088
   7 C_a :2pz    0.1185   0.2080   0.2470  -0.0000  -0.1698   0.0000   0.0000
   8 C_a :2px    0.0000  -0.0000  -0.0000   0.1032   0.0000   0.1514  -0.0239
   9 C_a :2py   -0.0000   0.0000   0.0000   0.9946  -0.0000  -0.1625  -0.0815
  10 C_a :2pz    0.0104   0.0122   0.0166   0.0000  -0.0308  -0.0000   0.0000
  11 C_a :2px    0.0000  -0.0000  -0.0000   0.2216  -0.0000   2.7651  -0.9419
  12 C_a :2py    0.0000   0.0000   0.0000   3.2787   0.0000   1.4655  -2.1305
  13 C_a :2pz    0.0166   0.0311   0.0459  -0.0000  -0.1608   0.0000   0.0000
  15 C_a :3d1-  -0.0253  -0.0272  -0.0231  -0.0000   0.0039   0.0000  -0.0000
  19 C_a :3d2-  -0.0000   0.0000   0.0000  -0.1670  -0.0000   0.0662   0.0926
  20 C_a :3d1-  -0.0138  -0.0177  -0.0162   0.0000  -0.0054  -0.0000  -0.0000
  21 C_a :3d0   -0.0000   0.0000   0.0000   0.0359  -0.0000  -0.0025  -0.0489
  23 C_a :3d2+  -0.0000   0.0000   0.0000   0.2159  -0.0000  -0.0640   0.0730
  25 C_b :1s    -0.0000   0.0000   0.0000   0.0157  -0.0000  -0.0559   0.0219
  26 C_b :1s    -0.0000   0.0000   0.0000   0.3484  -0.0000   0.1299  -0.0150
  27 C_b :1s    -0.0000   0.0000   0.0000   0.9499  -0.0000  16.8988  -7.1545
  28 C_b :2px   -0.0000   0.0000   0.0000  -0.0258  -0.0000   0.0400  -0.0320
  30 C_b :2pz    0.3053   0.3301   0.2684   0.0000  -0.0054  -0.0000   0.0000
  31 C_b :2px   -0.0000   0.0000   0.0000  -0.0273  -0.0000  -0.1483   0.1272
  32 C_b :2py   -0.0000   0.0000   0.0000   1.4515  -0.0000  -0.1969  -0.1049
  33 C_b :2pz   -0.0040   0.0110   0.0208  -0.0000  -0.0097  -0.0000  -0.0000
  34 C_b :2px   -0.0000   0.0000   0.0000  -0.8556  -0.0000   3.5903  -2.0001
  35 C_b :2py    0.0000  -0.0000  -0.0000   2.0163  -0.0000   3.6026  -2.9868
  36 C_b :2pz    0.0195   0.0398   0.0660   0.0000  -0.0077  -0.0000   0.0000
  38 C_b :3d1-   0.0007   0.0122   0.0206  -0.0000  -0.0160  -0.0000  -0.0000
  42 C_b :3d2-  -0.0000   0.0000   0.0000   0.4127  -0.0000  -0.0449   0.0145
  43 C_b :3d1-  -0.0036   0.0042   0.0127  -0.0000  -0.0178   0.0000  -0.0000
  44 C_b :3d0   -0.0000   0.0000   0.0000  -0.0039  -0.0000  -0.0530   0.0028
  46 C_b :3d2+  -0.0000   0.0000   0.0000   0.1109  -0.0000  -0.0662   0.1727
  48 C_c :1s    -0.0000   0.0000   0.0000  -0.0072  -0.0000   0.0545   0.0070
  49 C_c :1s     0.0000  -0.0000  -0.0000   0.3942  -0.0000  -0.3139   0.3318
  50 C_c :1s    -0.0000   0.0000   0.0000  -1.7154   0.0000 -18.6041   5.6177
  51 C_c :2px    0.0000  -0.0000  -0.0000   0.0310   0.0000   0.0425   0.0256
  52 C_c :2py    0.0000  -0.0000  -0.0000  -0.0103  -0.0000   0.0117   0.0109
  53 C_c :2pz    0.1962  -0.0532  -0.2648   0.0000   0.2293   0.0000   0.0000
  54 C_c :2px    0.0000  -0.0000  -0.0000  -0.6048   0.0000  -0.0948  -0.0696
  55 C_c :2py   -0.0000   0.0000   0.0000   1.0797  -0.0000  -0.1690  -0.0676
  56 C_c :2pz   -0.0129  -0.0116  -0.0170  -0.0000   0.0332   0.0000  -0.0000
  57 C_c :2px    0.0000  -0.0000  -0.0000  -0.0316  -0.0000   3.9517   0.1705
  58 C_c :2py    0.0000  -0.0000  -0.0000   3.4405   0.0000  -2.1591  -1.0008
  59 C_c :2pz    0.0045  -0.0141  -0.0525   0.0000   0.1950   0.0000   0.0000
  61 C_c :3d1-   0.0095   0.0241   0.0259   0.0000   0.0026   0.0000   0.0000
  65 C_c :3d2-  -0.0000   0.0000   0.0000  -0.2176  -0.0000   0.0366   0.1142
  66 C_c :3d1-   0.0072   0.0174   0.0206  -0.0000   0.0042  -0.0000  -0.0000
  67 C_c :3d0   -0.0000   0.0000   0.0000   0.0013  -0.0000   0.0496  -0.0428
  69 C_c :3d2+  -0.0000   0.0000   0.0000   0.3580  -0.0000  -0.1432   0.2081
  71 C_d :1s    -0.0000   0.0000   0.0000  -0.0063  -0.0000  -0.0412   0.0152
  72 C_d :1s    -0.0000   0.0000   0.0000   0.7083  -0.0000   0.1099   0.3000
  73 C_d :1s    -0.0000   0.0000   0.0000   3.0868  -0.0000  15.9297  -1.3778
  74 C_d :2px   -0.0000   0.0000   0.0000  -0.0054  -0.0000   0.0300  -0.0359
  76 C_d :2pz   -0.0012  -0.2647  -0.3205   0.0000  -0.0554  -0.0000  -0.0000
  77 C_d :2px   -0.0000   0.0000   0.0000   0.1687  -0.0000  -0.1909   0.2510
  78 C_d :2py   -0.0000   0.0000   0.0000   0.7347  -0.0000  -0.1163  -0.0574
  79 C_d :2pz    0.0132   0.0001  -0.0186   0.0000  -0.0030  -0.0000  -0.0000
  80 C_d :2px   -0.0000   0.0000   0.0000  -0.1519   0.0000   1.4710  -0.3321
  81 C_d :2py    0.0000  -0.0000  -0.0000   2.5838  -0.0000   6.6547  -1.8426
  82 C_d :2pz    0.0010  -0.0289  -0.0793   0.0000  -0.0360  -0.0000  -0.0000
  84 C_d :3d1-   0.0170   0.0017  -0.0204   0.0000   0.0209   0.0000   0.0000
  88 C_d :3d2-  -0.0000   0.0000   0.0000   0.2999  -0.0000  -0.0223   0.0690
  89 C_d :3d1-   0.0064   0.0015  -0.0135  -0.0000   0.0215  -0.0000  -0.0000
  90 C_d :3d0   -0.0000   0.0000   0.0000  -0.0072  -0.0000  -0.0437  -0.0023
  92 C_d :3d2+  -0.0000   0.0000   0.0000   0.1137  -0.0000   0.0772   0.2511
  94 C_e :1s    -0.0000   0.0000   0.0000  -0.0005  -0.0000   0.0391   0.0272
  95 C_e :1s    -0.0000   0.0000   0.0000   0.3021  -0.0000  -0.1685   0.3084
  96 C_e :1s     0.0000  -0.0000  -0.0000  -1.4605  -0.0000 -11.9109  -4.8235
  97 C_e :2px    0.0000  -0.0000  -0.0000   0.0118   0.0000   0.0359   0.0458
  98 C_e :2py   -0.0000  -0.0000  -0.0000  -0.0011  -0.0000   0.0077   0.0112
  99 C_e :2pz   -0.2844  -0.1614   0.2278  -0.0000  -0.2772  -0.0000  -0.0000
 100 C_e :2px    0.0000  -0.0000  -0.0000  -0.2492   0.0000  -0.0740  -0.2923
 101 C_e :2py   -0.0000   0.0000   0.0000   0.2951   0.0000  -0.0067  -0.1852
 102 C_e :2pz   -0.0026   0.0031   0.0146   0.0000  -0.0363   0.0000   0.0000
 103 C_e :2px    0.0000  -0.0000  -0.0000   0.1741   0.0000   3.2285   2.3019
 104 C_e :2py    0.0000   0.0000   0.0000   2.3788   0.0000  -3.2608  -0.3531
 105 C_e :2pz   -0.0130  -0.0093   0.0522  -0.0000  -0.2316  -0.0000  -0.0000
 107 C_e :3d1-   0.0148  -0.0108  -0.0280   0.0000  -0.0077  -0.0000   0.0000
 111 C_e :3d2-  -0.0000   0.0000   0.0000  -0.0881  -0.0000   0.0013   0.2005
 112 C_e :3d1-   0.0058  -0.0089  -0.0224  -0.0000  -0.0110   0.0000  -0.0000
 113 C_e :3d0   -0.0000   0.0000   0.0000  -0.0030  -0.0000   0.0320   0.0007
 115 C_e :3d2+  -0.0000   0.0000   0.0000   0.1674  -0.0000   0.0242   0.2516
 117 C_f :1s    -0.0000   0.0000   0.0000  -0.0005  -0.0000  -0.0343   0.0100
 118 C_f :1s    -0.0000   0.0000   0.0000   0.1665  -0.0000   0.2613   0.3023
 119 C_f :1s     0.0000  -0.0000  -0.0000   0.4590   0.0000   9.8015   5.4557
 120 C_f :2px   -0.0000   0.0000   0.0000  -0.0012  -0.0000   0.0228  -0.0312
 122 C_f :2pz   -0.2992   0.0535   0.3365  -0.0000   0.1158  -0.0000  -0.0000
 123 C_f :2px   -0.0000   0.0000   0.0000   0.0129  -0.0000  -0.0028   0.2221
 124 C_f :2py   -0.0000   0.0000   0.0000   0.2011   0.0000  -0.0601  -0.0771
 125 C_f :2pz   -0.0022  -0.0074   0.0198   0.0000   0.0103   0.0000   0.0000
 126 C_f :2px   -0.0000   0.0000   0.0000  -0.8127   0.0000   0.0545  -0.3666
 127 C_f :2py    0.0000  -0.0000  -0.0000   3.1218  -0.0000   5.4675   3.1670
 128 C_f :2pz   -0.0190   0.0032   0.0787  -0.0000   0.0940  -0.0000  -0.0000
 130 C_f :3d1-  -0.0138  -0.0157   0.0167  -0.0000  -0.0242   0.0000  -0.0000
 134 C_f :3d2-  -0.0000   0.0000   0.0000   0.0827  -0.0000   0.0085   0.1341
 135 C_f :3d1-  -0.0040  -0.0083   0.0111   0.0000  -0.0269  -0.0000  -0.0000
 136 C_f :3d0   -0.0000   0.0000   0.0000  -0.0041  -0.0000  -0.0392  -0.0179
 138 C_f :3d2+  -0.0000   0.0000   0.0000  -0.0088  -0.0000   0.0236   0.3826
 140 C_g :1s    -0.0000   0.0000   0.0000   0.0028  -0.0000   0.0322   0.0324
 141 C_g :1s    -0.0000   0.0000   0.0000  -0.0575  -0.0000  -0.1716   0.2251
 142 C_g :1s    -0.0000   0.0000   0.0000   0.2221   0.0000  -8.5985  -4.7374
 143 C_g :2px    0.0000  -0.0000  -0.0000   0.0048   0.0000   0.0269   0.0497
 144 C_g :2py    0.0000  -0.0000  -0.0000  -0.0004   0.0000   0.0059   0.0104
 145 C_g :2pz    0.0062   0.2841  -0.1614  -0.0000   0.3079  -0.0000  -0.0000
 146 C_g :2px    0.0000  -0.0000  -0.0000  -0.0002   0.0000   0.0010  -0.2885
 147 C_g :2py   -0.0000   0.0000   0.0000   0.1983   0.0000  -0.0681  -0.0707
 148 C_g :2pz    0.0113   0.0047  -0.0123   0.0000   0.0403  -0.0000   0.0000
 149 C_g :2px    0.0000  -0.0000  -0.0000  -0.8316  -0.0000   1.6108   2.5259
 150 C_g :2py   -0.0000   0.0000   0.0000   2.5091   0.0000  -1.5767  -1.3630
 151 C_g :2pz    0.0012   0.0241  -0.0447  -0.0000   0.2391  -0.0000  -0.0000
 153 C_g :3d1-  -0.0191  -0.0079   0.0272  -0.0000   0.0126  -0.0000  -0.0000
[...]

       No.  Residual tot.,    conf., and orb.    Bnorm      Frequency 
      ----------------------------------------------------------------
         1    9.69625D-02  0.00D+00  9.70D-02  5.28D+01    0.00000D+00
         2    1.00688D-01  0.00D+00  1.01D-01  5.50D+01    2.01000D-02
         3    1.13598D-01  0.00D+00  1.14D-01  6.21D+01    4.02000D-02

 ** RSPCTL MICROITERATION NUMBER    7

       No.  Residual tot.,    conf., and orb.    Bnorm      Frequency 
      ----------------------------------------------------------------
         1    3.39261D-02  0.00D+00  3.39D-02  5.28D+01    0.00000D+00
         2    3.56275D-02  0.00D+00  3.56D-02  5.50D+01    2.01000D-02
         3    4.16111D-02  0.00D+00  4.16D-02  6.21D+01    4.02000D-02

 *** THE REQUESTED    3 SOLUTION VECTORS CONVERGED

 Convergence of RSP solution vectors, threshold = 1.00D-03
 ---------------------------------------------------------------
 (dimension of paired reduced space:   42)
 RSP solution vector no.    1; norm of residual   6.42D-04
 RSP solution vector no.    2; norm of residual   6.48D-04
 RSP solution vector no.    3; norm of residual   6.70D-04

 *** RSPCTL MICROITERATIONS CONVERGED

@ QRLRVE: SINGLET SOLUTION FOR SYMMETRY    1  ( A  )    LABEL   YDIPLEN     FREQUENCY   0.000000D+00

@ QRLRVE:  << XDIPLEN  ; YDIPLEN  >> (   0.00000):    -96.0940172034    

@ QRLRVE:  << YDIPLEN  ; YDIPLEN  >> (   0.00000):     767.119628803    

@ QRLRVE:  << ZDIPLEN  ; YDIPLEN  >> (   0.00000):   -1.209267086049E-13

@ QRLRVE: SINGLET SOLUTION FOR SYMMETRY    1  ( A  )    LABEL   YDIPLEN     FREQUENCY   0.201000D-01

@ QRLRVE:  << XDIPLEN  ; YDIPLEN  >> (   0.02010):    -98.9028707418    

@ QRLRVE:  << YDIPLEN  ; YDIPLEN  >> (   0.02010):     785.002321149    

@ QRLRVE:  << ZDIPLEN  ; YDIPLEN  >> (   0.02010):   -1.178126274178E-13

@ QRLRVE: SINGLET SOLUTION FOR SYMMETRY    1  ( A  )    LABEL   YDIPLEN     FREQUENCY   0.402000D-01

@ QRLRVE:  << XDIPLEN  ; YDIPLEN  >> (   0.04020):    -108.396745622    

@ QRLRVE:  << YDIPLEN  ; YDIPLEN  >> (   0.04020):     845.248988805    

@ QRLRVE:  << ZDIPLEN  ; YDIPLEN  >> (   0.04020):   -1.071585001594E-13


 QRLRVE -- linear response calculation for symmetry  1  ( A  )
 QRLRVE -- operator label : ZDIPLEN 
 QRLRVE -- operator spin  :   0
 QRLRVE -- frequencies :  0.000000  0.020100  0.040200



 ---  SOLVING SETS OF LINEAR EQUATIONS FOR LINEAR RESPONSE PROPERTIES ---

 Operator symmetry = 1  ( A  ); triplet =   F


 ** RSPCTL MICROITERATION NUMBER    1

       No.  Residual tot.,    conf., and orb.    Bnorm      Frequency 
      ----------------------------------------------------------------
         1    3.15100D+00  0.00D+00  3.15D+00  8.01D+00    0.00000D+00
         2    3.15412D+00  0.00D+00  3.15D+00  8.03D+00    2.01000D-02
         3    3.16354D+00  0.00D+00  3.16D+00  8.11D+00    4.02000D-02

 ** RSPCTL MICROITERATION NUMBER    2

       No.  Residual tot.,    conf., and orb.    Bnorm      Frequency 
      ----------------------------------------------------------------
         1    6.92589D-01  0.00D+00  6.93D-01  8.39D+00    0.00000D+00
         2    6.94728D-01  0.00D+00  6.95D-01  8.42D+00    2.01000D-02
         3    7.01225D-01  0.00D+00  7.01D-01  8.51D+00    4.02000D-02

 ** RSPCTL MICROITERATION NUMBER    3

       No.  Residual tot.,    conf., and orb.    Bnorm      Frequency 
      ----------------------------------------------------------------
         1    1.47164D-01  0.00D+00  1.47D-01  8.42D+00    0.00000D+00
         2    1.48272D-01  0.00D+00  1.48D-01  8.45D+00    2.01000D-02
         3    1.51668D-01  0.00D+00  1.52D-01  8.54D+00    4.02000D-02

 ** RSPCTL MICROITERATION NUMBER    4

       No.  Residual tot.,    conf., and orb.    Bnorm      Frequency 
      ----------------------------------------------------------------
         1    4.19841D-02  0.00D+00  4.20D-02  8.43D+00    0.00000D+00
         2    4.28086D-02  0.00D+00  4.28D-02  8.46D+00    2.01000D-02
         3    4.54132D-02  0.00D+00  4.54D-02  8.55D+00    4.02000D-02

 ** RSPCTL MICROITERATION NUMBER    5

       No.  Residual tot.,    conf., and orb.    Bnorm      Frequency 
      ----------------------------------------------------------------
         1    1.61631D-02  0.00D+00  1.62D-02  8.43D+00    0.00000D+00
         2    1.66817D-02  0.00D+00  1.67D-02  8.46D+00    2.01000D-02
         3    1.83270D-02  0.00D+00  1.83D-02  8.55D+00    4.02000D-02

 ** RSPCTL MICROITERATION NUMBER    6

       No.  Residual tot.,    conf., and orb.    Bnorm      Frequency 
      ----------------------------------------------------------------
         1    5.54645D-03  0.00D+00  5.55D-03  8.43D+00    0.00000D+00
         2    5.81223D-03  0.00D+00  5.81D-03  8.46D+00    2.01000D-02
         3    6.67099D-03  0.00D+00  6.67D-03  8.55D+00    4.02000D-02

 *** THE REQUESTED    3 SOLUTION VECTORS CONVERGED

 Convergence of RSP solution vectors, threshold = 1.00D-03
 ---------------------------------------------------------------
 (dimension of paired reduced space:   36)
 RSP solution vector no.    1; norm of residual   6.58D-04
 RSP solution vector no.    2; norm of residual   6.87D-04
 RSP solution vector no.    3; norm of residual   7.81D-04

 *** RSPCTL MICROITERATIONS CONVERGED

@ QRLRVE: SINGLET SOLUTION FOR SYMMETRY    1  ( A  )    LABEL   ZDIPLEN     FREQUENCY   0.000000D+00

@ QRLRVE:  << XDIPLEN  ; ZDIPLEN  >> (   0.00000):    4.294326163520E-14

@ QRLRVE:  << YDIPLEN  ; ZDIPLEN  >> (   0.00000):   -9.456032795617E-14

@ QRLRVE:  << ZDIPLEN  ; ZDIPLEN  >> (   0.00000):     103.768254992    

@ QRLRVE: SINGLET SOLUTION FOR SYMMETRY    1  ( A  )    LABEL   ZDIPLEN     FREQUENCY   0.201000D-01

@ QRLRVE:  << XDIPLEN  ; ZDIPLEN  >> (   0.02010):    4.345020784924E-14

@ QRLRVE:  << YDIPLEN  ; ZDIPLEN  >> (   0.02010):   -9.107909077177E-14

@ QRLRVE:  << ZDIPLEN  ; ZDIPLEN  >> (   0.02010):     103.911924513    

@ QRLRVE: SINGLET SOLUTION FOR SYMMETRY    1  ( A  )    LABEL   ZDIPLEN     FREQUENCY   0.402000D-01

@ QRLRVE:  << XDIPLEN  ; ZDIPLEN  >> (   0.04020):    4.490476855055E-14

@ QRLRVE:  << YDIPLEN  ; ZDIPLEN  >> (   0.04020):   -7.895402697686E-14

@ QRLRVE:  << ZDIPLEN  ; ZDIPLEN  >> (   0.04020):     104.347436850    
 
 ======================================================================
 ---  L I N E A R   R E S P O N S E   F U N C T I O N S --- 
 ======================================================================

 The -<<A;B>>(omega_b) functions from vectors generated
 in a *QUADRA calculation of <<A;B,C>>(omega_b,omega_c)

 Note: the accuracy of off-diagonal elements will be linear
 in the convergence threshold THCLR =  1.00D-03


 Perturbation symmetry.     KSYMOP:           1
 Perturbation spin symmetry.TRPLET:           F
 Orbital variables.         KZWOPT:       25288
 Configuration variables.   KZCONF:           0
 Total number of variables. KZVAR :       25288

@ Singlet linear response function in a.u.

@ A operator, symmetry, frequency:   XDIPLEN    1 -0.000000
@ B operator, symmetry, frequency:   XDIPLEN    1  0.000000

@ Value of linear response -<<A;B>>(omega):     159.759331896521

@ Singlet linear response function in a.u.

@ A operator, symmetry, frequency:   YDIPLEN    1 -0.000000
@ B operator, symmetry, frequency:   XDIPLEN    1  0.000000

@ Value of linear response -<<A;B>>(omega):     -96.103429010139

@ Singlet linear response function in a.u.

@ A operator, symmetry, frequency:   ZDIPLEN    1 -0.000000
@ B operator, symmetry, frequency:   XDIPLEN    1  0.000000

@ Value of linear response -<<A;B>>(omega):      -0.000000000000

@ Singlet linear response function in a.u.

@ A operator, symmetry, frequency:   XDIPLEN    1 -0.020100
@ B operator, symmetry, frequency:   XDIPLEN    1  0.020100

@ Value of linear response -<<A;B>>(omega):     160.452489045862

@ Singlet linear response function in a.u.

@ A operator, symmetry, frequency:   YDIPLEN    1 -0.020100
@ B operator, symmetry, frequency:   XDIPLEN    1  0.020100

@ Value of linear response -<<A;B>>(omega):     -98.913083242141

@ Singlet linear response function in a.u.

@ A operator, symmetry, frequency:   ZDIPLEN    1 -0.020100
@ B operator, symmetry, frequency:   XDIPLEN    1  0.020100

@ Value of linear response -<<A;B>>(omega):      -0.000000000000

@ Singlet linear response function in a.u.

@ A operator, symmetry, frequency:   XDIPLEN    1 -0.000000
@ B operator, symmetry, frequency:   YDIPLEN    1  0.000000

@ Value of linear response -<<A;B>>(omega):     -96.094017203396

@ Singlet linear response function in a.u.

@ A operator, symmetry, frequency:   YDIPLEN    1 -0.000000
@ B operator, symmetry, frequency:   YDIPLEN    1  0.000000

@ Value of linear response -<<A;B>>(omega):     767.119628802712

@ Singlet linear response function in a.u.

@ A operator, symmetry, frequency:   ZDIPLEN    1 -0.000000
@ B operator, symmetry, frequency:   YDIPLEN    1  0.000000

@ Value of linear response -<<A;B>>(omega):      -0.000000000000

@ Singlet linear response function in a.u.

@ A operator, symmetry, frequency:   XDIPLEN    1 -0.020100
@ B operator, symmetry, frequency:   YDIPLEN    1  0.020100

@ Value of linear response -<<A;B>>(omega):     -98.902870741787

@ Singlet linear response function in a.u.

@ A operator, symmetry, frequency:   YDIPLEN    1 -0.020100
@ B operator, symmetry, frequency:   YDIPLEN    1  0.020100

@ Value of linear response -<<A;B>>(omega):     785.002321149279

@ Singlet linear response function in a.u.

@ A operator, symmetry, frequency:   ZDIPLEN    1 -0.020100
@ B operator, symmetry, frequency:   YDIPLEN    1  0.020100

@ Value of linear response -<<A;B>>(omega):      -0.000000000000

@ Singlet linear response function in a.u.

@ A operator, symmetry, frequency:   XDIPLEN    1 -0.000000
@ B operator, symmetry, frequency:   ZDIPLEN    1  0.000000

@ Value of linear response -<<A;B>>(omega):       0.000000000000

@ Singlet linear response function in a.u.

@ A operator, symmetry, frequency:   YDIPLEN    1 -0.000000
@ B operator, symmetry, frequency:   ZDIPLEN    1  0.000000

@ Value of linear response -<<A;B>>(omega):      -0.000000000000

@ Singlet linear response function in a.u.

@ A operator, symmetry, frequency:   ZDIPLEN    1 -0.000000
@ B operator, symmetry, frequency:   ZDIPLEN    1  0.000000

@ Value of linear response -<<A;B>>(omega):     103.768254991875

@ Singlet linear response function in a.u.

@ A operator, symmetry, frequency:   XDIPLEN    1 -0.020100
@ B operator, symmetry, frequency:   ZDIPLEN    1  0.020100

@ Value of linear response -<<A;B>>(omega):       0.000000000000

@ Singlet linear response function in a.u.

@ A operator, symmetry, frequency:   YDIPLEN    1 -0.020100
@ B operator, symmetry, frequency:   ZDIPLEN    1  0.020100

@ Value of linear response -<<A;B>>(omega):      -0.000000000000

@ Singlet linear response function in a.u.

@ A operator, symmetry, frequency:   ZDIPLEN    1 -0.020100
@ B operator, symmetry, frequency:   ZDIPLEN    1  0.020100

@ Value of linear response -<<A;B>>(omega):     103.911924512696


  Results from quadratic response calculation
 --------------------------------------------

@ B-freq = 0.000000  C-freq = 0.000000     beta(X;X,X) =   -517.94815255
@ B-freq = 0.000000  C-freq = 0.000000     beta(Y;X,X) =   2140.94066019
@ B-freq = 0.000000  C-freq = 0.000000     beta(Z;X,X) =     -0.00000000
@ B-freq = 0.020100  C-freq = 0.000000     beta(X;X,X) =   -541.40390873
@ B-freq = 0.020100  C-freq = 0.000000     beta(Y;X,X) =   2246.87208011
@ B-freq = 0.020100  C-freq = 0.000000     beta(Z;X,X) =     -0.00000000
@ B-freq = 0.000000  C-freq = 0.000000     beta(X;Y,X) = beta(Y,X,X)
@ B-freq = 0.000000  C-freq = 0.000000     beta(X;Y,X) =   2140.94078591
@ B-freq = 0.000000  C-freq = 0.000000     beta(Y;Y,X) =  -7310.13979051
@ B-freq = 0.000000  C-freq = 0.000000     beta(Z;Y,X) =     -0.00000000
@ B-freq = 0.020100  C-freq = 0.000000     beta(X;Y,X) =   2246.87221256
@ B-freq = 0.020100  C-freq = 0.000000     beta(Y;Y,X) =  -7758.39625071
@ B-freq = 0.020100  C-freq = 0.000000     beta(Z;Y,X) =     -0.00000000
@ B-freq = 0.000000  C-freq = 0.000000     beta(X;Z,X) = beta(Z,X,X)
@ B-freq = 0.000000  C-freq = 0.000000     beta(Y;Z,X) = beta(Z,Y,X)
@ B-freq = 0.000000  C-freq = 0.000000     beta(X;Z,X) =     -0.00000000
@ B-freq = 0.000000  C-freq = 0.000000     beta(Y;Z,X) =     -0.00000000
@ B-freq = 0.000000  C-freq = 0.000000     beta(Z;Z,X) =     16.22798851
@ B-freq = 0.020100  C-freq = 0.000000     beta(X;Z,X) =     -0.00000000
@ B-freq = 0.020100  C-freq = 0.000000     beta(Y;Z,X) =     -0.00000000
@ B-freq = 0.020100  C-freq = 0.000000     beta(Z;Z,X) =     16.38131982
@ B-freq = 0.000000  C-freq = 0.020100     beta(X;X,X) = beta(X,X,X)
@ B-freq = 0.000000  C-freq = 0.020100     beta(Y;X,X) = beta(Y,X,X)
@ B-freq = 0.000000  C-freq = 0.020100     beta(Z;X,X) = beta(Z,X,X)
@ B-freq = 0.020100  C-freq = 0.020100     beta(X;X,X) =   -593.97343093
@ B-freq = 0.020100  C-freq = 0.020100     beta(Y;X,X) =   2514.89127779
@ B-freq = 0.020100  C-freq = 0.020100     beta(Z;X,X) =     -0.00000000
@ B-freq = 0.000000  C-freq = 0.020100     beta(X;Y,X) =   2222.40731561
@ B-freq = 0.000000  C-freq = 0.020100     beta(Y;Y,X) =  -7647.21528991
@ B-freq = 0.000000  C-freq = 0.020100     beta(Z;Y,X) =     -0.00000000
@ B-freq = 0.020100  C-freq = 0.020100     beta(X;Y,X) =   2430.92965846
@ B-freq = 0.020100  C-freq = 0.020100     beta(Y;Y,X) =  -8659.45044906
@ B-freq = 0.020100  C-freq = 0.020100     beta(Z;Y,X) =     -0.00000000
@ B-freq = 0.000000  C-freq = 0.020100     beta(X;Z,X) =     -0.00000000
@ B-freq = 0.000000  C-freq = 0.020100     beta(Y;Z,X) =     -0.00000000
@ B-freq = 0.000000  C-freq = 0.020100     beta(Z;Z,X) =     16.41720198
@ B-freq = 0.020100  C-freq = 0.020100     beta(X;Z,X) =     -0.00000000
@ B-freq = 0.020100  C-freq = 0.020100     beta(Y;Z,X) =     -0.00000000
@ B-freq = 0.020100  C-freq = 0.020100     beta(Z;Z,X) =     16.73601024
@ B-freq = 0.000000  C-freq = 0.000000     beta(X;X,Y) = beta(Y,X,X)
@ B-freq = 0.000000  C-freq = 0.000000     beta(Y;X,Y) = beta(Y,Y,X)
@ B-freq = 0.000000  C-freq = 0.000000     beta(Z;X,Y) = beta(Z,Y,X)
@ B-freq = 0.020100  C-freq = 0.000000     beta(X;X,Y) = beta(X,Y,X)
@ B-freq = 0.020100  C-freq = 0.000000     beta(Y;X,Y) = beta(Y,Y,X)
@ B-freq = 0.020100  C-freq = 0.000000     beta(Z;X,Y) = beta(Z,Y,X)
@ B-freq = 0.000000  C-freq = 0.000000     beta(X;Y,Y) = beta(Y,Y,X)
@ B-freq = 0.000000  C-freq = 0.000000     beta(X;Y,Y) =  -7310.14071243
@ B-freq = 0.000000  C-freq = 0.000000     beta(Y;Y,Y) =  19331.22203272
@ B-freq = 0.000000  C-freq = 0.000000     beta(Z;Y,Y) =      0.00000000
@ B-freq = 0.020100  C-freq = 0.000000     beta(X;Y,Y) =  -7647.21626201
@ B-freq = 0.020100  C-freq = 0.000000     beta(Y;Y,Y) =  20554.46928979
@ B-freq = 0.020100  C-freq = 0.000000     beta(Z;Y,Y) =      0.00000000
@ B-freq = 0.000000  C-freq = 0.000000     beta(X;Z,Y) = beta(Z,Y,X)
@ B-freq = 0.000000  C-freq = 0.000000     beta(Y;Z,Y) = beta(Z,Y,Y)
@ B-freq = 0.000000  C-freq = 0.000000     beta(X;Z,Y) =     -0.00000000
@ B-freq = 0.000000  C-freq = 0.000000     beta(Y;Z,Y) =      0.00000000
@ B-freq = 0.000000  C-freq = 0.000000     beta(Z;Z,Y) =    -42.50720772
@ B-freq = 0.020100  C-freq = 0.000000     beta(X;Z,Y) =     -0.00000000
@ B-freq = 0.020100  C-freq = 0.000000     beta(Y;Z,Y) =      0.00000000
@ B-freq = 0.020100  C-freq = 0.000000     beta(Z;Z,Y) =    -43.21680524
@ B-freq = 0.000000  C-freq = 0.020100     beta(X;X,Y) = beta(X,Y,X)
@ B-freq = 0.000000  C-freq = 0.020100     beta(Y;X,Y) = beta(Y,Y,X)
@ B-freq = 0.000000  C-freq = 0.020100     beta(Z;X,Y) = beta(Z,Y,X)
@ B-freq = 0.020100  C-freq = 0.020100     beta(X;X,Y) = beta(X,Y,X)
@ B-freq = 0.020100  C-freq = 0.020100     beta(Y;X,Y) = beta(Y,Y,X)
@ B-freq = 0.020100  C-freq = 0.020100     beta(Z;X,Y) = beta(Z,Y,X)
@ B-freq = 0.000000  C-freq = 0.020100     beta(X;Y,Y) = beta(X,Y,Y)
@ B-freq = 0.000000  C-freq = 0.020100     beta(Y;Y,Y) = beta(Y,Y,Y)
@ B-freq = 0.000000  C-freq = 0.020100     beta(Z;Y,Y) = beta(Z,Y,Y)
@ B-freq = 0.020100  C-freq = 0.020100     beta(X;Y,Y) =  -8279.21532827
@ B-freq = 0.020100  C-freq = 0.020100     beta(Y;Y,Y) =  23359.93265867
@ B-freq = 0.020100  C-freq = 0.020100     beta(Z;Y,Y) =      0.00000000
@ B-freq = 0.000000  C-freq = 0.020100     beta(X;Z,Y) =     -0.00000000
@ B-freq = 0.000000  C-freq = 0.020100     beta(Y;Z,Y) =      0.00000000
@ B-freq = 0.000000  C-freq = 0.020100     beta(Z;Z,Y) =    -43.43112162
@ B-freq = 0.020100  C-freq = 0.020100     beta(X;Z,Y) =     -0.00000000
@ B-freq = 0.020100  C-freq = 0.020100     beta(Y;Z,Y) =      0.00000000
@ B-freq = 0.020100  C-freq = 0.020100     beta(Z;Z,Y) =    -44.92516855
@ B-freq = 0.000000  C-freq = 0.000000     beta(X;X,Z) = beta(Z,X,X)
@ B-freq = 0.000000  C-freq = 0.000000     beta(Y;X,Z) = beta(Z,Y,X)
@ B-freq = 0.000000  C-freq = 0.000000     beta(Z;X,Z) = beta(Z,Z,X)
@ B-freq = 0.020100  C-freq = 0.000000     beta(X;X,Z) = beta(X,Z,X)
@ B-freq = 0.020100  C-freq = 0.000000     beta(Y;X,Z) = beta(Y,Z,X)
@ B-freq = 0.020100  C-freq = 0.000000     beta(Z;X,Z) = beta(Z,Z,X)
@ B-freq = 0.000000  C-freq = 0.000000     beta(X;Y,Z) = beta(Z,Y,X)
@ B-freq = 0.000000  C-freq = 0.000000     beta(Y;Y,Z) = beta(Z,Y,Y)
@ B-freq = 0.000000  C-freq = 0.000000     beta(Z;Y,Z) = beta(Z,Z,Y)
@ B-freq = 0.020100  C-freq = 0.000000     beta(X;Y,Z) = beta(X,Z,Y)
@ B-freq = 0.020100  C-freq = 0.000000     beta(Y;Y,Z) = beta(Y,Z,Y)
@ B-freq = 0.020100  C-freq = 0.000000     beta(Z;Y,Z) = beta(Z,Z,Y)
@ B-freq = 0.000000  C-freq = 0.000000     beta(X;Z,Z) = beta(Z,Z,X)
@ B-freq = 0.000000  C-freq = 0.000000     beta(Y;Z,Z) = beta(Z,Z,Y)
@ B-freq = 0.000000  C-freq = 0.000000     beta(X;Z,Z) =     16.22798440
@ B-freq = 0.000000  C-freq = 0.000000     beta(Y;Z,Z) =    -42.50718773
@ B-freq = 0.000000  C-freq = 0.000000     beta(Z;Z,Z) =      0.00000000
@ B-freq = 0.020100  C-freq = 0.000000     beta(X;Z,Z) =     16.41719769
@ B-freq = 0.020100  C-freq = 0.000000     beta(Y;Z,Z) =    -43.43110069
@ B-freq = 0.020100  C-freq = 0.000000     beta(Z;Z,Z) =      0.00000000
@ B-freq = 0.000000  C-freq = 0.020100     beta(X;X,Z) = beta(X,Z,X)
@ B-freq = 0.000000  C-freq = 0.020100     beta(Y;X,Z) = beta(Y,Z,X)
@ B-freq = 0.000000  C-freq = 0.020100     beta(Z;X,Z) = beta(Z,Z,X)
@ B-freq = 0.020100  C-freq = 0.020100     beta(X;X,Z) = beta(X,Z,X)
@ B-freq = 0.020100  C-freq = 0.020100     beta(Y;X,Z) = beta(Y,Z,X)
@ B-freq = 0.020100  C-freq = 0.020100     beta(Z;X,Z) = beta(Z,Z,X)
@ B-freq = 0.000000  C-freq = 0.020100     beta(X;Y,Z) = beta(X,Z,Y)
@ B-freq = 0.000000  C-freq = 0.020100     beta(Y;Y,Z) = beta(Y,Z,Y)
@ B-freq = 0.000000  C-freq = 0.020100     beta(Z;Y,Z) = beta(Z,Z,Y)
@ B-freq = 0.020100  C-freq = 0.020100     beta(X;Y,Z) = beta(X,Z,Y)
@ B-freq = 0.020100  C-freq = 0.020100     beta(Y;Y,Z) = beta(Y,Z,Y)
@ B-freq = 0.020100  C-freq = 0.020100     beta(Z;Y,Z) = beta(Z,Z,Y)
@ B-freq = 0.000000  C-freq = 0.020100     beta(X;Z,Z) = beta(X,Z,Z)
@ B-freq = 0.000000  C-freq = 0.020100     beta(Y;Z,Z) = beta(Y,Z,Z)
@ B-freq = 0.000000  C-freq = 0.020100     beta(Z;Z,Z) = beta(Z,Z,Z)
@ B-freq = 0.020100  C-freq = 0.020100     beta(X;Z,Z) =     16.86721872
@ B-freq = 0.020100  C-freq = 0.020100     beta(Y;Z,Z) =    -45.71155678
@ B-freq = 0.020100  C-freq = 0.020100     beta(Z;Z,Z) =      0.00000000

  Total CPU  time used in RESPONSE:  4 minutes 51 seconds
  Total wall time used in RESPONSE:  4 minutes 53 seconds


                   .-------------------------------------------.
                   | End of Dynamic Property Section (RESPONS) |
                   `-------------------------------------------'

  Total CPU  time used in DALTON:  6 minutes 18 seconds
  Total wall time used in DALTON:  6 minutes 22 seconds

 
     Date and time (Linux)  : Tue May 20 14:31:14 2025
     Host name              : xm045                                   
