

     ************************************************************************
     *************** Dalton - An Electronic Structure Program ***************
     ************************************************************************

    This is output from DALTON release Dalton2020.0 (2020)
         ( Web site: http://daltonprogram.org )

   ----------------------------------------------------------------------------

    NOTE:
     
    Dalton is an experimental code for the evaluation of molecular
    properties using (MC)SCF, DFT, CI, and CC wave functions.
    The authors accept no responsibility for the performance of
    the code or for the correctness of the results.
     
    The code (in whole or part) is provided under a licence and
    is not to be reproduced for further distribution without
    the written permission of the authors or their representatives.
     
    See the home page "http://daltonprogram.org" for further information.
     
    If results obtained with this code are published,
    the appropriate citations would be both of:
     
       K. Aidas, C. Angeli, K. L. Bak, V. Bakken, R. Bast,
       L. Boman, O. Christiansen, R. Cimiraglia, S. Coriani,
       P. Dahle, E. K. Dalskov, U. Ekstroem,
       T. Enevoldsen, J. J. Eriksen, P. Ettenhuber, B. Fernandez,
       L. Ferrighi, H. Fliegl, L. Frediani, K. Hald, A. Halkier,
       C. Haettig, H. Heiberg, T. Helgaker, A. C. Hennum,
       H. Hettema, E. Hjertenaes, S. Hoest, I.-M. Hoeyvik,
       M. F. Iozzi, B. Jansik, H. J. Aa. Jensen, D. Jonsson,
       P. Joergensen, J. Kauczor, S. Kirpekar,
       T. Kjaergaard, W. Klopper, S. Knecht, R. Kobayashi, H. Koch,
       J. Kongsted, A. Krapp, K. Kristensen, A. Ligabue,
       O. B. Lutnaes, J. I. Melo, K. V. Mikkelsen, R. H. Myhre,
       C. Neiss, C. B. Nielsen, P. Norman, J. Olsen,
       J. M. H. Olsen, A. Osted, M. J. Packer, F. Pawlowski,
       T. B. Pedersen, P. F. Provasi, S. Reine, Z. Rinkevicius,
       T. A. Ruden, K. Ruud, V. Rybkin, P. Salek, C. C. M. Samson,
       A. Sanchez de Meras, T. Saue, S. P. A. Sauer,
       B. Schimmelpfennig, K. Sneskov, A. H. Steindal,
       K. O. Sylvester-Hvid, P. R. Taylor, A. M. Teale,
       E. I. Tellgren, D. P. Tew, A. J. Thorvaldsen, L. Thoegersen,
       O. Vahtras, M. A. Watson, D. J. D. Wilson, M. Ziolkowski
       and H. Agren,
       "The Dalton quantum chemistry program system",
       WIREs Comput. Mol. Sci. 2014, 4:269–284 (doi: 10.1002/wcms.1172)
     
    and
     
       Dalton, a molecular electronic structure program,
       Release Dalton2020.0 (2020), see http://daltonprogram.org
   ----------------------------------------------------------------------------

    Authors in alphabetical order (Major contribution(s) in parenthesis):

  Kestutis Aidas,           Vilnius University,           Lithuania   (QM/MM)
  Celestino Angeli,         University of Ferrara,        Italy       (NEVPT2)
  Keld L. Bak,              UNI-C,                        Denmark     (AOSOPPA, non-adiabatic coupling, magnetic properties)
  Vebjoern Bakken,          University of Oslo,           Norway      (DALTON; geometry optimizer, symmetry detection)
  Radovan Bast,             UiT The Arctic U. of Norway,  Norway      (DALTON installation and execution frameworks)
  Pablo Baudin,             University of Valencia,       Spain       (Cholesky excitation energies)
  Linus Boman,              NTNU,                         Norway      (Cholesky decomposition and subsystems)
  Bruno N. Cabral Tenorio,  Technical Univ. of Denmark,   Denmark     (Lanczos-based CC methods)
  Ove Christiansen,         Aarhus University,            Denmark     (CC module)
  Renzo Cimiraglia,         University of Ferrara,        Italy       (NEVPT2)
  Sonia Coriani,            Technical Univ. of Denmark,   Denmark     (CC and RESPONS modules)
  Janusz Cukras,            University of Warsaw,         Poland      (MChD in RESPONS)
  Paal Dahle,               University of Oslo,           Norway      (Parallelization)
  Erik K. Dalskov,          UNI-C,                        Denmark     (SOPPA)
  Thomas Enevoldsen,        Univ. of Southern Denmark,    Denmark     (SOPPA)
  Janus J. Eriksen,         Aarhus University,            Denmark     (Polarizable embedding, TDA)
  Rasmus Faber,             Technical Univ. of Denmark,   Denmark     (Vib.avg. NMR w. SOPPA, parallel AO-SOPPA, CVS-CC and EOMCC)
  Tobias Fahleson,          KTH Stockholm,                Sweden      (Damped cubic response)
  Berta Fernandez,          U. of Santiago de Compostela, Spain       (Doublet spin, ESR in RESPONS)
  Lara Ferrighi,            Aarhus University,            Denmark     (PCM Cubic response)
  Heike Fliegl,             University of Oslo,           Norway      (CCSD(R12))
  Luca Frediani,            UiT The Arctic U. of Norway,  Norway      (PCM)
  Emmanuel Fromager,        Univ. Strasbourg,             France      (MC-srDFT)
  Bin Gao,                  UiT The Arctic U. of Norway,  Norway      (Gen1Int library)
  Andre S. P. Gomes,        CNRS/Universite de Lille,     France      (Frozen density embedding)
  Christof Haettig,         Ruhr-University Bochum,       Germany     (CC module)
  Kasper Hald,              Aarhus University,            Denmark     (CC module)
  Asger Halkier,            Aarhus University,            Denmark     (CC module)
  Frederik Beyer Hansen,    University of Copenhagen,     Denmark     (Parallel AO-SOPPA)
  Erik D. Hedegaard,        Univ. of Southern Denmark,    Denmark     (Polarizable embedding, QM/MM, and MC-srDFT)
  Hanne Heiberg,            University of Oslo,           Norway      (Geometry analysis, selected one-electron integrals)
  Trygve Helgaker,          University of Oslo,           Norway      (DALTON; ABACUS, ERI, DFT modules, London, and much more)
  Alf Christian Hennum,     University of Oslo,           Norway      (Parity violation)
  Hinne Hettema,            University of Auckland,       New Zealand (Quadratic response in RESPONS; SIRIUS supersymmetry)
  Eirik Hjertenaes,         NTNU,                         Norway      (Cholesky decomposition)
  Pi A. B. Haase,           University of Copenhagen,     Denmark     (Triplet AO-SOPPA)
  Maria Francesca Iozzi,    University of Oslo,           Norway      (RPA)
  Christoph Jacob           TU Braunschweig               Germany     (Frozen density embedding)
  Brano Jansik              Technical Univ. of Ostrava    Czech Rep.  (DFT cubic response)
  Hans Joergen Aa. Jensen,  Univ. of Southern Denmark,    Denmark     (DALTON; SIRIUS, RESPONS, ABACUS, MC-srDFT, and much more)
  Dan Jonsson,              UiT The Arctic U. of Norway,  Norway      (Cubic response in RESPONS module)
  Poul Joergensen,          Aarhus University,            Denmark     (RESPONS, ABACUS, and CC modules)
  Maciej Kaminski,          University of Warsaw,         Poland      (CPPh in RESPONS)
  Joanna Kauczor,           Linkoeping University,        Sweden      (Complex polarization propagator (CPP) module)
  Sheela Kirpekar,          Univ. of Southern Denmark,    Denmark     (Mass-velocity & Darwin integrals)
  Erik Kjellgren,           Univ. of Southern Denmark,    Denmark     (MC-srDFT)
  Wim Klopper,              KIT Karlsruhe,                Germany     (R12 code in CC, SIRIUS, and ABACUS modules)
  Stefan Knecht,            ETH Zurich,                   Switzerland (Parallel CI and MCSCF, MC-srDFT)
  Rika Kobayashi,           Australian National Univ.,    Australia   (DIIS in CC, London in MCSCF)
  Henrik Koch,              NTNU,                         Norway      (CC module, Cholesky decomposition)
  Jacob Kongsted,           Univ. of Southern Denmark,    Denmark     (Polarizable embedding, polarizable density embedding, QM/MM)
  Andrea Ligabue,           University of Modena,         Italy       (CTOCD, AOSOPPA)
  Nanna H. List             Univ. of Southern Denmark,    Denmark     (Polarizable embedding)
  Ola B. Lutnaes,           University of Oslo,           Norway      (DFT Hessian)
  Juan I. Melo,             University of Buenos Aires,   Argentina   (LRESC, Relativistic Effects on NMR Shieldings)
  Kurt V. Mikkelsen,        University of Copenhagen,     Denmark     (MC-SCRF and QM/MM)
  Rolf H. Myhre,            NTNU,                         Norway      (Subsystems and CC3)
  Christian Neiss,          Univ. Erlangen-Nuernberg,     Germany     (CCSD(R12))
  Christian B. Nielsen,     University of Copenhagen,     Denmark     (QM/MM)
  Patrick Norman,           KTH Stockholm,                Sweden      (Cubic response and complex frequency response in RESPONS)
  Jeppe Olsen,              Aarhus University,            Denmark     (SIRIUS CI/density modules)
  Jogvan Magnus H. Olsen,   Aarhus University,            Denmark     (Polarizable embedding and polarizable density embedding)
  Anders Osted,             Copenhagen University,        Denmark     (QM/MM)
  Martin J. Packer,         University of Sheffield,      UK          (SOPPA)
  Filip Pawlowski,          Kazimierz Wielki University,  Poland      (CC3)
  Morten N. Pedersen,       Univ. of Southern Denmark,    Denmark     (Polarizable embedding)
  Thomas B. Pedersen,       University of Oslo,           Norway      (Cholesky decomposition)
  Patricio F. Provasi,      University of Northeastern,   Argentina   (Analysis of coupling constants in localized orbitals)
  Peter Reinholdt,          Univ. of Southern Denmark,    Denmark     (Polarizable embedding and polarizable density embedding)
  Zilvinas Rinkevicius,     KTH Stockholm,                Sweden      (open-shell DFT, ESR)
  Elias Rudberg,            KTH Stockholm,                Sweden      (DFT grid and basis info)
  Torgeir A. Ruden,         University of Oslo,           Norway      (Numerical derivatives in ABACUS)
  Kenneth Ruud,             UiT The Arctic U. of Norway,  Norway      (DALTON; ABACUS magnetic properties and much more)
  Pawel Salek,              KTH Stockholm,                Sweden      (DALTON; DFT code)
  Claire C. M. Samson       University of Karlsruhe       Germany     (Boys localization, r12 integrals in ERI)
  Alfredo Sanchez de Meras, University of Valencia,       Spain       (CC module, Cholesky decomposition)
  Trond Saue,               Paul Sabatier University,     France      (direct Fock matrix construction)
  Stephan P. A. Sauer,      University of Copenhagen,     Denmark     (SOPPA(CCSD), SOPPA prop., AOSOPPA, vibrational g-factors)
  Bernd Schimmelpfennig,    Forschungszentrum Karlsruhe,  Germany     (AMFI module)
  Anna K. Schnack-Petersen, University of Copenhagen,     Denmark     (RPA(D) and HRPA(D) properties in AOSOPPA)
  Kristian Sneskov,         Aarhus University,            Denmark     (Polarizable embedding, QM/MM)
  Arnfinn H. Steindal,      UiT The Arctic U. of Norway,  Norway      (parallel QM/MM, polarizable embedding)
  Casper Steinmann,         Aalborg University,           Denmark     (QFIT, polarizable embedding)
  K. O. Sylvester-Hvid,     University of Copenhagen,     Denmark     (MC-SCRF)
  Peter R. Taylor,          VLSCI/Univ. of Melbourne,     Australia   (Symmetry handling ABACUS, integral transformation)
  Andrew M. Teale,          University of Nottingham,     England     (DFT-AC, DFT-D)
  David P. Tew,             University of Bristol,        England     (CCSD(R12))
  Julien Toulouse,          Sorbonne Univ.,               France      (MC-srDFT)
  Olav Vahtras,             KTH Stockholm,                Sweden      (Triplet response, spin-orbit, ESR, TDDFT, open-shell DFT)
  Lucas Visscher,           Vrije Universiteit Amsterdam, Netherlands (Frozen density embedding)
  David J. Wilson,          La Trobe University,          Australia   (DFT Hessian and DFT magnetizabilities)
  Hans Agren,               KTH Stockholm,                Sweden      (SIRIUS module, RESPONS, MC-SCRF solvation)
 --------------------------------------------------------------------------------

     Date and time (Linux)  : Tue May 27 14:48:10 2025
     Host name              : xm023                                   

 * Work memory size             :   131072000 = 1000.00 megabytes.

 * Directories for basis set searches:
   1) /gpfs/projects/rjh/adrian/summer2025/beta_projects/raw_data/NLO/dalton/hf/n6/dipole
   2) /gpfs/projects/rjh/adrian/dalton/build/basis


Compilation information
-----------------------

 Who compiled             | ahurtado
 Host                     | milan2
 System                   | Linux-5.14.0-427.42.1.el9_4.x86_64
 CMake generator          | Unix Makefiles
 Processor                | x86_64
 64-bit integers          | OFF
 MPI                      | ON
 Fortran compiler         | /gpfs/software/openmpi/milan/gcc13.2/4.1.6/bin/mpi
                          | f90
 Fortran compiler version | GNU Fortran (GCC) 13.2.0
 C compiler               | /gpfs/software/openmpi/milan/gcc13.2/4.1.6/bin/mpi
                          | cc
 C compiler version       | gcc (GCC) 13.2.0
 C++ compiler             | /gpfs/software/openmpi/milan/gcc13.2/4.1.6/bin/mpi
                          | cxx
 C++ compiler version     | unknown
 BLAS                     | /gpfs/software/intel/oneAPI/2024_2/mkl/2024.2/lib/
                          | intel64/libmkl_gf_lp64.so;/gpfs/software/intel/one
                          | API/2024_2/mkl/2024.2/lib/intel64/libmkl_sequentia
                          | l.so;/gpfs/software/intel/oneAPI/2024_2/mkl/2024.2
                          | /lib/intel64/libmkl_core.so;/usr/lib64/libpthread.
                          | a;/usr/lib64/libm.so
 LAPACK                   | /gpfs/software/intel/oneAPI/2024_2/mkl/2024.2/lib/
                          | intel64/libmkl_lapack95_lp64.a;/gpfs/software/inte
                          | l/oneAPI/2024_2/mkl/2024.2/lib/intel64/libmkl_gf_l
                          | p64.so
 Static linking           | OFF
 Last Git revision        | 66052b3af5ea7225e31178bf9a8b031913c72190
 Git branch               | (HEAD detached at Dalton2020.0)
 Configuration time       | 2025-04-10 16:02:31.569498

 * MPI parallel run using 576 processes.


   Content of the .dal input file
 ----------------------------------

**DALTON INPUT
.RUN RESPONSE
.DIRECT
**WAVE FUNCTIONS
.HF
**PROPERTIES
**RESPONSE
*QUADRA
.DIPLEN
.FREQUENCIES
2
0.0 0.0201
**END OF DALTON INPUT


   Content of the .mol file
 ----------------------------

BASIS
d-aug-cc-pVTZ
blah
blah
Atomtype=4 Angstrom Charge=0 Nosymmetry
Charge=6 Atoms=12
C_a -1.5409340013725623 7.648444002169006 0.0
C_b -2.0062739986099687 6.359974997481831 0.0
C_c -1.117924000488792 5.226000999275696 0.0
C_d -1.512054001638856 3.910470999182316 0.0
C_e -0.5863380016146826 2.807702999139388 0.0
C_f -0.9491559998226989 1.4820489976141258 0.0
C_g 0.0 0.39966299868824806 0.0
C_h -0.3396019991227674 -0.9313269982832101 0.0
C_i 0.6318300011387791 -1.9960939996456535 0.0
C_j 0.31624100019002277 -3.3298059995204445 0.0
C_k 1.3240629984907504 -4.366341999955663 0.0
C_l 1.034302999608722 -5.688294999570765 0.0
Charge=7 Atoms=2
N_a -2.3045209998062157 8.782894000567909 0.0
N_b 2.0916910004841918 -6.691574000934346 0.0
Charge=8 Atoms=2
O_a 3.267613998035823 -6.319843002173978 0.0
O_b 1.710391001350492 -7.868637999804081 0.0
Charge=1 Atoms=14
H_a -0.4588089979387591 7.830007999923906 0.0
H_b -3.089380001340456 6.1770070026268975 0.0
H_c -0.037261997414011726 5.437900001255672 0.0
H_d -2.586386997648074 3.6768810021698886 0.0
H_e 0.4870809995162662 3.0520889997235274 0.0
H_f -2.018261000162647 1.2250459994244614 0.0
H_g 1.067967999601558 0.6655219997529035 0.0
H_h -1.4035229995867406 -1.2083000013807854 0.0
H_i 1.6943540002254438 -1.7107379987228446 0.0
H_j -0.7402810021801856 -3.6304650010264696 0.0
H_k 2.3822630006289045 -4.077865001804448 0.0
H_l 0.03541099903235335 -6.128434001087978 0.0
H_m -3.31398899852896 8.728602000993027 0.0
H_n -1.8783430001741876 9.696697999325472 0.0


       *******************************************************************
       *********** Output from DALTON general input processing ***********
       *******************************************************************

 --------------------------------------------------------------------------------
   Overall default print level:    0
   Print level for DALTON.STAT:    1

    Parallel calculation using MPI
    AO-direct calculation (in sections where implemented)
    HERMIT 1- and 2-electron integral sections will be executed
    "Old" integral transformation used (limited to max 255 basis functions)
    Wave function sections will be executed (SIRIUS module)
    Dynamic molecular response properties section will be executed (RESPONSE module)
 --------------------------------------------------------------------------------


   ****************************************************************************
   *************** Output of molecule and basis set information ***************
   ****************************************************************************


    The two title cards from your ".mol" input:
    ------------------------------------------------------------------------
 1: blah                                                                    
 2: blah                                                                    
    ------------------------------------------------------------------------

  Coordinates are entered in Angstrom and converted to atomic units.
          - Conversion factor : 1 bohr = 0.52917721 A

  Atomic type no.    1
  --------------------
  Nuclear charge:   6.00000
  Number of symmetry independent centers:   12
  Number of basis sets to read;    2
  Basis set file used for this atomic type with Z =   6 :
     "/gpfs/projects/rjh/adrian/dalton/build/basis/aug-cc-pVTZ"

  Atomic type no.    2
  --------------------
  Nuclear charge:   7.00000
  Number of symmetry independent centers:    2
  Number of basis sets to read;    2
  Basis set file used for this atomic type with Z =   7 :
     "/gpfs/projects/rjh/adrian/dalton/build/basis/aug-cc-pVTZ"

  Atomic type no.    3
  --------------------
  Nuclear charge:   8.00000
  Number of symmetry independent centers:    2
  Number of basis sets to read;    2
  Basis set file used for this atomic type with Z =   8 :
     "/gpfs/projects/rjh/adrian/dalton/build/basis/aug-cc-pVTZ"

  Atomic type no.    4
  --------------------
  Nuclear charge:   1.00000
  Number of symmetry independent centers:   14
  Number of basis sets to read;    2
  Basis set file used for this atomic type with Z =   1 :
     "/gpfs/projects/rjh/adrian/dalton/build/basis/aug-cc-pVTZ"


                         SYMGRP: Point group information
                         -------------------------------

@    Point group: C1 


                                 Isotopic Masses
                                 ---------------

                           C_a        12.000000
                           C_b        12.000000
                           C_c        12.000000
                           C_d        12.000000
                           C_e        12.000000
                           C_f        12.000000
                           C_g        12.000000
                           C_h        12.000000
                           C_i        12.000000
                           C_j        12.000000
                           C_k        12.000000
                           C_l        12.000000
                           N_a        14.003074
                           N_b        14.003074
                           O_a        15.994915
                           O_b        15.994915
                           H_a         1.007825
                           H_b         1.007825
                           H_c         1.007825
                           H_d         1.007825
                           H_e         1.007825
                           H_f         1.007825
                           H_g         1.007825
                           H_h         1.007825
                           H_i         1.007825
                           H_j         1.007825
                           H_k         1.007825
                           H_l         1.007825
                           H_m         1.007825
                           H_n         1.007825

                       Total mass:   218.105528 amu
                       Natural abundance:  86.325 %

 Center-of-mass coordinates (a.u.):    0.084529   -0.254926    0.000000
 Center-of-mass coordinates (Angs):    0.044731   -0.134901    0.000000


  Atoms and basis sets
  --------------------

  Number of atom types :    4
  Total number of atoms:   30

  Basis set used is "d-aug-cc-pVTZ" from the basis set library.

  label    atoms   charge   prim   cont     basis
  ----------------------------------------------------------------------
  C_         12    6.0000    74    62      [12s7p4d3f|6s5p4d3f]                               
  N_          2    7.0000    74    62      [12s7p4d3f|6s5p4d3f]                               
  O_          2    8.0000    74    62      [12s7p4d3f|6s5p4d3f]                               
  H_         14    1.0000    34    32      [7s4p3d|5s4p3d]                                    
  ----------------------------------------------------------------------
  total:     30  116.0000  1660  1440
  ----------------------------------------------------------------------
  Spherical harmonic basis used.

  Threshold for neglecting AO integrals:  1.00D-12

  Max    interatomic separation is   17.9282 Angstrom (   33.8794 Bohr)
  between atoms   30 and   16, "H_n   " and "O_b   ".

  Min HX interatomic separation is    1.0083 Angstrom (    1.9054 Bohr)

  Min YX interatomic separation is    1.2333 Angstrom (    2.3306 Bohr)


  Bond distances (Angstrom):
  --------------------------

                  atom 1     atom 2       distance
                  ------     ------       --------
  bond distance:  C_b        C_a          1.369925
  bond distance:  C_c        C_b          1.440508
  bond distance:  C_d        C_c          1.373302
  bond distance:  C_e        C_d          1.439808
  bond distance:  C_f        C_e          1.374407
  bond distance:  C_g        C_f          1.439603
  bond distance:  C_h        C_g          1.373632
  bond distance:  C_i        C_h          1.441322
  bond distance:  C_j        C_i          1.370542
  bond distance:  C_k        C_j          1.445722
  bond distance:  C_l        C_k          1.353337
  bond distance:  N_a        C_a          1.367495
  bond distance:  N_b        C_l          1.457614
  bond distance:  O_a        N_b          1.233280
  bond distance:  O_b        N_b          1.237283
  bond distance:  H_a        C_a          1.097251
  bond distance:  H_b        C_b          1.098452
  bond distance:  H_c        C_c          1.101241
  bond distance:  H_d        C_d          1.099434
  bond distance:  H_e        C_e          1.100887
  bond distance:  H_f        C_f          1.099562
  bond distance:  H_g        C_g          1.100562
  bond distance:  H_h        C_h          1.099383
  bond distance:  H_i        C_i          1.100175
  bond distance:  H_j        C_j          1.098469
  bond distance:  H_k        C_k          1.096816
  bond distance:  H_l        C_l          1.091562
  bond distance:  H_m        N_a          1.010927
  bond distance:  H_n        N_a          1.008298


  Bond angles (degrees):
  ----------------------

                  atom 1     atom 2     atom 3         angle
                  ------     ------     ------         -----
  bond angle:     C_b        C_a        N_a          126.198
  bond angle:     C_b        C_a        H_a          119.382
  bond angle:     N_a        C_a        H_a          114.419
  bond angle:     C_a        C_b        C_c          122.067
  bond angle:     C_a        C_b        H_b          119.446
  bond angle:     C_c        C_b        H_b          118.487
  bond angle:     C_b        C_c        C_d          125.247
  bond angle:     C_b        C_c        H_c          116.981
  bond angle:     C_d        C_c        H_c          117.772
  bond angle:     C_c        C_d        C_e          123.310
  bond angle:     C_c        C_d        H_d          118.945
  bond angle:     C_e        C_d        H_d          117.745
  bond angle:     C_d        C_e        C_f          124.682
  bond angle:     C_d        C_e        H_e          117.186
  bond angle:     C_f        C_e        H_e          118.132
  bond angle:     C_e        C_f        C_g          123.446
  bond angle:     C_e        C_f        H_f          118.823
  bond angle:     C_g        C_f        H_f          117.731
  bond angle:     C_f        C_g        C_h          124.439
  bond angle:     C_f        C_g        H_g          117.269
  bond angle:     C_h        C_g        H_g          118.293
  bond angle:     C_g        C_h        C_i          123.311
  bond angle:     C_g        C_h        H_h          118.906
  bond angle:     C_i        C_h        H_h          117.783
  bond angle:     C_h        C_i        C_j          124.312
  bond angle:     C_h        C_i        H_i          117.343
  bond angle:     C_j        C_i        H_i          118.346
  bond angle:     C_i        C_j        C_k          122.492
  bond angle:     C_i        C_j        H_j          119.198
  bond angle:     C_k        C_j        H_j          118.310
  bond angle:     C_j        C_k        C_l          123.442
  bond angle:     C_j        C_k        H_k          118.946
  bond angle:     C_l        C_k        H_k          117.612
  bond angle:     C_k        C_l        N_b          121.133
  bond angle:     C_k        C_l        H_l          126.143
  bond angle:     N_b        C_l        H_l          112.725
  bond angle:     C_a        N_a        H_m          120.866
  bond angle:     C_a        N_a        H_n          121.053
  bond angle:     H_m        N_a        H_n          118.082
  bond angle:     C_l        N_b        O_a          118.961
  bond angle:     C_l        N_b        O_b          115.547
  bond angle:     O_a        N_b        O_b          125.492




 Principal moments of inertia (u*A**2) and principal axes
 --------------------------------------------------------

   IA      88.457596         -0.268559    0.963263    0.000000
   IB    6848.677198          0.963263    0.268559    0.000000
   IC    6937.134794          0.000000    0.000000    1.000000


 Rotational constants
 --------------------

@    The molecule is planar.

               A                   B                   C

           5713.2347             73.7922             72.8513 MHz
            0.190573            0.002461            0.002430 cm-1


@  Nuclear repulsion energy :  839.879465627210 Hartree


                     .---------------------------------------.
                     | Starting in Integral Section (HERMIT) |
                     `---------------------------------------'



 ***************************************************************************************
 ****************** Output from **INTEGRALS input processing (HERMIT) ******************
 ***************************************************************************************


 - Using defaults, no **INTEGRALS input found

 Default print level:        1

 Calculation of one-electron Hamiltonian integrals.

 Center of mass  (bohr):      0.084529064515     -0.254926480599      0.000000000000
 Operator center (bohr):      0.000000000000      0.000000000000      0.000000000000
 Gauge origin    (bohr):      0.000000000000      0.000000000000      0.000000000000
 Dipole origin   (bohr):      0.000000000000      0.000000000000      0.000000000000


     ************************************************************************
     ************************** Output from HERINT **************************
     ************************************************************************



                      Nuclear contribution to dipole moments
                      --------------------------------------

                 au               Debye          C m (/(10**-30)

      x      0.00000375         0.00000953         0.00003179
      y     -0.00000952        -0.00002420        -0.00008071
      z      0.00000000         0.00000000         0.00000000


  Time used in ONEDRV     is       3.20 seconds
  Time used in HUCKEL     is       0.78 seconds
  Time used in OVERLAP    is       0.45 seconds
  Time used in POPOVLP    is       0.87 seconds
  Time used in R2         is       0.56 seconds
  Time used in R4         is       0.67 seconds
  Time used in DIPLEN     is       0.76 seconds
  Time used in QUADRUP    is       1.52 seconds
  Time used in KINENE     is       0.76 seconds
  Time used in GABGEN     is       8.37 seconds
  Total CPU  time used in HERMIT:  17.93 seconds
  Total wall time used in HERMIT:  18.19 seconds


                        .----------------------------------.
                        | End of Integral Section (HERMIT) |
                        `----------------------------------'



                   .--------------------------------------------.
                   | Starting in Wave Function Section (SIRIUS) |
                   `--------------------------------------------'



@ Primary orbitals are deleted during canonical orthonormalization
@   because of detected numerical linear dependence or too large coefficients.
@ Eigenvalue threshold for num. lin. dep. =  1.00D-06

@  79 MO components are deleted in symmetry    1
 Overlap eigenvalues of the deleted orbitals:
  9.85D-07  9.12D-07  8.82D-07  8.28D-07  8.12D-07
  7.57D-07  6.85D-07  6.11D-07  5.84D-07  5.63D-07
  5.17D-07  4.87D-07  4.58D-07  4.33D-07  4.17D-07
  4.03D-07  3.86D-07  3.82D-07  3.78D-07  3.24D-07
  3.09D-07  2.87D-07  2.71D-07  2.58D-07  2.43D-07
  2.36D-07  2.12D-07  1.85D-07  1.78D-07  1.70D-07
  1.59D-07  1.50D-07  1.44D-07  1.28D-07  1.26D-07
  1.17D-07  1.13D-07  1.05D-07  9.96D-08  9.56D-08
  9.02D-08  8.58D-08  8.23D-08  7.96D-08  7.70D-08
  6.78D-08  6.50D-08  6.26D-08  5.98D-08  5.88D-08
  5.13D-08  4.69D-08  4.55D-08  4.36D-08  3.89D-08
  3.53D-08  3.35D-08  3.07D-08  2.88D-08  2.43D-08
  2.09D-08  1.88D-08  1.73D-08  1.60D-08  1.35D-08
  1.31D-08  1.21D-08  1.01D-08  9.58D-09  8.00D-09
  5.94D-09  5.66D-09  4.88D-09  3.00D-09  2.87D-09
  2.09D-09  1.69D-09  1.45D-09  4.80D-10

 Max MO coeff. of last deleted MO & limit:  2.62D+02  1.00D+03

WARNING: Orbitals have been deleted because of numerical
   linear dependence although not requested in input.

 *** Output from Huckel module :

     Using EWMO model:          T
     Using EHT  model:          F
     Number of Huckel orbitals each symmetry:   94

 EWMO - Energy Weighted Maximum Overlap - is a Huckel type method,
        which normally is better than Extended Huckel Theory.
 Reference: Linderberg and Ohrn, Propagators in Quantum Chemistry (Wiley, 1973)

 Huckel EWMO eigenvalues for symmetry :  1
          -20.684751     -20.683489     -15.677076     -15.674974     -11.359272
          -11.359089     -11.358575     -11.356923     -11.354453     -11.351843
          -11.348237     -11.346829     -11.345842     -11.345475     -11.345302
          -11.345275      -1.964070      -1.791004      -1.771497      -1.714524
           -1.610037      -1.472373      -1.438433      -1.304227      -1.191901
           -1.144337      -1.118703      -1.019259      -0.990557      -0.910296
           -0.869944      -0.851997      -0.824360      -0.768146      -0.765496
           -0.721976      -0.714853      -0.693582      -0.647974      -0.644434
           -0.611097      -0.594796      -0.585975      -0.566900      -0.547087
           -0.534422      -0.522376      -0.501686      -0.491914      -0.491873
           -0.489577      -0.479132      -0.478316      -0.467189      -0.424763
           -0.415728      -0.374310      -0.370913      -0.334716      -0.287126
           -0.253635      -0.229179      -0.228800      -0.211810      -0.201193
           -0.201104      -0.195466      -0.190507      -0.166495      -0.142763
           -0.138674      -0.132387      -0.130592      -0.130127      -0.129288
           -0.128661      -0.127701      -0.126874      -0.126319      -0.124647
           -0.124407      -0.123086      -0.110071      -0.108405      -0.101713
           -0.099251      -0.094039      -0.091531      -0.089081      -0.086814
           -0.085945      -0.083848      -0.081393      -0.079509

 **********************************************************************
 *SIRIUS* a direct, restricted step, second order MCSCF program       *
 **********************************************************************

 
     Date and time (Linux)  : Tue May 27 14:51:02 2025
     Host name              : xm023                                   

 Title lines from ".mol" input file:
     blah                                                                    
     blah                                                                    

 Print level on unit LUPRI =   2 is   0
 Print level on unit LUW4  =   2 is   5

@    Restricted, closed shell Hartree-Fock calculation.

@    Time-dependent Hartree-Fock calculation (random phase approximation).
 Fock matrices are calculated directly and in parallel without use of integrals on disk.

 Initial molecular orbitals are obtained according to
 ".MOSTART EWMO  " input option

     Wave function specification
     ============================
@    Wave function type        --- HF ---
@    Number of closed shell electrons         116
@    Number of electrons in active shells       0
@    Total charge of the molecule               0

@    Spin multiplicity and 2 M_S                1         0
@    Total number of symmetries                 1 (point group: C1 )
@    Reference state symmetry                   1 (irrep name : A  )

     Orbital specifications
     ======================
@    Abelian symmetry species          All |    1
@                                          |  A  
                                       --- |  ---
@    Occupied SCF orbitals              58 |   58
@    Secondary orbitals               1303 | 1303
@    Total number of orbitals         1361 | 1361
@    Number of basis functions        1440 | 1440

     Optimization information
     ========================
@    Number of configurations                 1
@    Number of orbital rotations          75574
     ------------------------------------------
@    Total number of variables            75575

     Maximum number of Fock   iterations      0
     Maximum number of DIIS   iterations     60
     Maximum number of QC-SCF iterations     60
     Threshold for SCF convergence     1.00D-05

    INFORMATION: Switched to "new" integral transformation (from 1988 ;-) )
    because more than 255 basis functions.


 ***********************************************
 ***** DIIS acceleration of SCF iterations *****
 ***********************************************

 C1-DIIS algorithm; max error vectors =    8

 Iter      Total energy        Error norm    Delta(E)  DIIS dim.
 -----------------------------------------------------------------------------
   1  Screening settings (-IFTHRS, JTDIIS, DIFDEN, times)  -10    1    T  4.11D+01  4.13D+01
@  1    -718.352875858        6.75777D+00   -7.18D+02    1
      Virial theorem: -V/T =      2.008670
@    MULPOP   C_a     0.51; C_b     0.29; C_c     0.32; C_d     0.15; C_e     0.28; C_f     0.27; C_g     0.26; C_h     0.34; C_i     0.32; C_j     0.19; 
@             C_k     0.51; C_l     0.06; N_a    -0.90; N_b     0.03; O_a    -0.72; O_b    -0.76; H_a     0.01; H_b    -0.01; H_c    -0.25; H_d    -0.32; 
@             H_e    -0.29; H_f    -0.27; H_g    -0.27; H_h    -0.16; H_i    -0.18; H_j    -0.12; H_k    -0.08; H_l     0.14; H_m     0.31; H_n     0.35; 
   1  Level shift: doubly occupied orbital energies shifted by -2.00D-01
 -----------------------------------------------------------------------------
   2  Screening settings (-IFTHRS, JTDIIS, DIFDEN, times)  -10    2    T  3.64D+01  3.66D+01
@  2    -720.775739310        2.90879D+00   -2.42D+00    2
      Virial theorem: -V/T =      2.001464
@    MULPOP   C_a    -0.16; C_b     0.29; C_c     0.05; C_d     0.06; C_e     0.13; C_f     0.23; C_g    -0.05; C_h     0.24; C_i     0.25; C_j     0.25; 
@             C_k     0.58; C_l    -0.59; N_a    -0.81; N_b    -0.12; O_a    -0.71; O_b    -0.69; H_a     0.54; H_b     0.39; H_c    -0.13; H_d    -0.27; 
@             H_e    -0.20; H_f    -0.16; H_g    -0.08; H_h    -0.09; H_i    -0.06; H_j    -0.03; H_k     0.25; H_l     0.77; H_m     0.02; H_n     0.12; 
   2  Level shift: doubly occupied orbital energies shifted by -1.00D-01
 -----------------------------------------------------------------------------
   3  Screening settings (-IFTHRS, JTDIIS, DIFDEN, times)  -10    3    T  3.60D+01  3.62D+01
@  3    -721.178294200        8.41305D-01   -4.03D-01    3
      Virial theorem: -V/T =      2.001488
@    MULPOP   C_a     0.06; C_b     0.13; C_c     0.03; C_d     0.02; C_e     0.10; C_f     0.16; C_g    -0.03; C_h     0.23; C_i     0.17; C_j     0.21; 
@             C_k     0.45; C_l    -0.20; N_a    -0.91; N_b     0.59; O_a    -1.06; O_b    -1.20; H_a     0.53; H_b     0.36; H_c    -0.08; H_d    -0.20; 
@             H_e    -0.15; H_f    -0.10; H_g    -0.07; H_h    -0.03; H_i    -0.02; H_j    -0.02; H_k     0.29; H_l     0.73; H_m    -0.03; H_n     0.06; 
   3  Level shift: doubly occupied orbital energies shifted by -5.00D-02
 -----------------------------------------------------------------------------
   4  Screening settings (-IFTHRS, JTDIIS, DIFDEN, times)  -10    4    T  3.60D+01  3.62D+01
@  4    -721.223991389        2.54964D-01   -4.57D-02    4
      Virial theorem: -V/T =      2.003373
@    MULPOP   C_a     0.13; C_b     0.08; C_c     0.07; C_d     0.02; C_e     0.14; C_f     0.17; C_g    -0.01; C_h     0.25; C_i     0.19; C_j     0.20; 
@             C_k     0.43; C_l    -0.23; N_a    -0.94; N_b     0.52; O_a    -1.03; O_b    -1.18; H_a     0.52; H_b     0.33; H_c    -0.09; H_d    -0.20; 
@             H_e    -0.16; H_f    -0.10; H_g    -0.07; H_h    -0.04; H_i    -0.03; H_j    -0.02; H_k     0.30; H_l     0.74; H_m    -0.05; H_n     0.04; 
   4  Level shift: doubly occupied orbital energies shifted by -2.50D-02
 -----------------------------------------------------------------------------
   5  Screening settings (-IFTHRS, JTDIIS, DIFDEN, times)  -10    5    T  3.58D+01  3.60D+01
@  5    -721.232816636        1.02800D-01   -8.83D-03    5
      Virial theorem: -V/T =      2.002719
@    MULPOP   C_a     0.11; C_b     0.07; C_c     0.07; C_d     0.01; C_e     0.14; C_f     0.16; C_g    -0.03; C_h     0.24; C_i     0.18; C_j     0.19; 
@             C_k     0.40; C_l    -0.20; N_a    -0.96; N_b     0.58; O_a    -1.04; O_b    -1.21; H_a     0.53; H_b     0.34; H_c    -0.09; H_d    -0.20; 
@             H_e    -0.15; H_f    -0.09; H_g    -0.05; H_h    -0.03; H_i    -0.02; H_j    -0.01; H_k     0.31; H_l     0.73; H_m    -0.05; H_n     0.04; 
   5  Level shift: doubly occupied orbital energies shifted by -1.25D-02
 -----------------------------------------------------------------------------
   6  Screening settings (-IFTHRS, JTDIIS, DIFDEN, times)  -14    6    F  3.75D+01  3.76D+01
@  6    -721.235112319        5.07590D-02   -2.30D-03    6
      Virial theorem: -V/T =      2.002572
@    MULPOP   C_a     0.10; C_b     0.07; C_c     0.07; C_d     0.01; C_e     0.14; C_f     0.16; C_g    -0.03; C_h     0.24; C_i     0.18; C_j     0.19; 
@             C_k     0.41; C_l    -0.22; N_a    -0.97; N_b     0.58; O_a    -1.04; O_b    -1.20; H_a     0.53; H_b     0.34; H_c    -0.09; H_d    -0.20; 
@             H_e    -0.14; H_f    -0.09; H_g    -0.05; H_h    -0.03; H_i    -0.02; H_j    -0.01; H_k     0.31; H_l     0.74; H_m    -0.05; H_n     0.05; 
 -----------------------------------------------------------------------------
   7  Screening settings (-IFTHRS, JTDIIS, DIFDEN, times)  -14    7    T  3.71D+01  3.72D+01
@  7    -721.235774052        2.40826D-02   -6.62D-04    7
      Virial theorem: -V/T =      2.002615
@    MULPOP   C_a     0.10; C_b     0.07; C_c     0.08; C_d     0.01; C_e     0.15; C_f     0.16; C_g    -0.03; C_h     0.24; C_i     0.18; C_j     0.19; 
@             C_k     0.41; C_l    -0.22; N_a    -0.97; N_b     0.59; O_a    -1.04; O_b    -1.20; H_a     0.53; H_b     0.34; H_c    -0.09; H_d    -0.20; 
@             H_e    -0.15; H_f    -0.10; H_g    -0.05; H_h    -0.03; H_i    -0.01; H_j    -0.01; H_k     0.32; H_l     0.73; H_m    -0.05; H_n     0.05; 
 -----------------------------------------------------------------------------
   8  Screening settings (-IFTHRS, JTDIIS, DIFDEN, times)  -14    8    T  3.70D+01  3.73D+01
@  8    -721.235917393        9.96154D-03   -1.43D-04    8
      Virial theorem: -V/T =      2.002611
@    MULPOP   C_a     0.10; C_b     0.07; C_c     0.08; C_d     0.01; C_e     0.15; C_f     0.16; C_g    -0.03; C_h     0.24; C_i     0.18; C_j     0.19; 
@             C_k     0.41; C_l    -0.22; N_a    -0.97; N_b     0.59; O_a    -1.04; O_b    -1.20; H_a     0.53; H_b     0.34; H_c    -0.09; H_d    -0.20; 
@             H_e    -0.15; H_f    -0.10; H_g    -0.05; H_h    -0.03; H_i    -0.01; H_j    -0.01; H_k     0.32; H_l     0.73; H_m    -0.05; H_n     0.05; 
 -----------------------------------------------------------------------------
   9  Screening settings (-IFTHRS, JTDIIS, DIFDEN, times)  -14    9    T  3.69D+01  3.72D+01
@  9    -721.235938253        3.68419D-03   -2.09D-05    8
      Virial theorem: -V/T =      2.002601
@    MULPOP   C_a     0.10; C_b     0.07; C_c     0.08; C_d     0.01; C_e     0.15; C_f     0.16; C_g    -0.03; C_h     0.25; C_i     0.18; C_j     0.19; 
@             C_k     0.41; C_l    -0.23; N_a    -0.97; N_b     0.59; O_a    -1.04; O_b    -1.20; H_a     0.53; H_b     0.34; H_c    -0.09; H_d    -0.20; 
@             H_e    -0.15; H_f    -0.10; H_g    -0.05; H_h    -0.03; H_i    -0.01; H_j    -0.01; H_k     0.32; H_l     0.73; H_m    -0.05; H_n     0.05; 
 -----------------------------------------------------------------------------
  10  Screening settings (-IFTHRS, JTDIIS, DIFDEN, times)  -14   10    T  3.68D+01  3.69D+01
@ 10    -721.235942549        1.95853D-03   -4.30D-06    8
      Virial theorem: -V/T =      2.002602
@    MULPOP   C_a     0.10; C_b     0.07; C_c     0.08; C_d     0.01; C_e     0.15; C_f     0.16; C_g    -0.03; C_h     0.25; C_i     0.18; C_j     0.19; 
@             C_k     0.41; C_l    -0.23; N_a    -0.97; N_b     0.59; O_a    -1.04; O_b    -1.20; H_a     0.53; H_b     0.34; H_c    -0.09; H_d    -0.20; 
@             H_e    -0.15; H_f    -0.10; H_g    -0.05; H_h    -0.03; H_i    -0.01; H_j    -0.01; H_k     0.32; H_l     0.73; H_m    -0.05; H_n     0.05; 
 -----------------------------------------------------------------------------
  11  Screening settings (-IFTHRS, JTDIIS, DIFDEN, times)  -14   11    T  3.68D+01  3.70D+01
@ 11    -721.235944006        1.14161D-03   -1.46D-06    8
      Virial theorem: -V/T =      2.002603
@    MULPOP   C_a     0.10; C_b     0.07; C_c     0.08; C_d     0.01; C_e     0.15; C_f     0.16; C_g    -0.03; C_h     0.25; C_i     0.18; C_j     0.19; 
@             C_k     0.41; C_l    -0.23; N_a    -0.97; N_b     0.59; O_a    -1.04; O_b    -1.20; H_a     0.53; H_b     0.34; H_c    -0.09; H_d    -0.20; 
@             H_e    -0.15; H_f    -0.10; H_g    -0.05; H_h    -0.03; H_i    -0.01; H_j    -0.01; H_k     0.32; H_l     0.73; H_m    -0.05; H_n     0.05; 
 -----------------------------------------------------------------------------
  12  Screening settings (-IFTHRS, JTDIIS, DIFDEN, times)  -14   12    T  3.63D+01  3.66D+01
@ 12    -721.235944505        3.61151D-04   -4.99D-07    8
      Virial theorem: -V/T =      2.002602
@    MULPOP   C_a     0.10; C_b     0.07; C_c     0.08; C_d     0.01; C_e     0.15; C_f     0.16; C_g    -0.03; C_h     0.24; C_i     0.18; C_j     0.19; 
@             C_k     0.41; C_l    -0.23; N_a    -0.97; N_b     0.59; O_a    -1.04; O_b    -1.20; H_a     0.53; H_b     0.34; H_c    -0.09; H_d    -0.20; 
@             H_e    -0.15; H_f    -0.10; H_g    -0.05; H_h    -0.03; H_i    -0.01; H_j    -0.01; H_k     0.32; H_l     0.73; H_m    -0.05; H_n     0.05; 
 -----------------------------------------------------------------------------
  13  Screening settings (-IFTHRS, JTDIIS, DIFDEN, times)  -14   13    T  3.64D+01  3.65D+01
@ 13    -721.235944558        1.48314D-04   -5.21D-08    8
      Virial theorem: -V/T =      2.002602
@    MULPOP   C_a     0.10; C_b     0.07; C_c     0.08; C_d     0.01; C_e     0.15; C_f     0.16; C_g    -0.03; C_h     0.24; C_i     0.18; C_j     0.19; 
@             C_k     0.41; C_l    -0.23; N_a    -0.97; N_b     0.59; O_a    -1.04; O_b    -1.20; H_a     0.53; H_b     0.34; H_c    -0.09; H_d    -0.20; 
@             H_e    -0.15; H_f    -0.10; H_g    -0.05; H_h    -0.03; H_i    -0.01; H_j    -0.01; H_k     0.32; H_l     0.73; H_m    -0.05; H_n     0.05; 
 -----------------------------------------------------------------------------
  14  Screening settings (-IFTHRS, JTDIIS, DIFDEN, times)  -14   14    T  3.64D+01  3.65D+01
@ 14    -721.235944561        5.56086D-05   -3.84D-09    8
      Virial theorem: -V/T =      2.002602
@    MULPOP   C_a     0.10; C_b     0.07; C_c     0.08; C_d     0.01; C_e     0.15; C_f     0.16; C_g    -0.03; C_h     0.24; C_i     0.18; C_j     0.19; 
@             C_k     0.41; C_l    -0.23; N_a    -0.97; N_b     0.59; O_a    -1.04; O_b    -1.20; H_a     0.53; H_b     0.34; H_c    -0.09; H_d    -0.20; 
@             H_e    -0.15; H_f    -0.10; H_g    -0.05; H_h    -0.03; H_i    -0.01; H_j    -0.01; H_k     0.32; H_l     0.73; H_m    -0.05; H_n     0.05; 
 -----------------------------------------------------------------------------
  15  Screening settings (-IFTHRS, JTDIIS, DIFDEN, times)  -14   15    T  3.61D+01  3.62D+01
@ 15    -721.235944562        2.45938D-05   -6.94D-10    8
      Virial theorem: -V/T =      2.002602
@    MULPOP   C_a     0.10; C_b     0.07; C_c     0.08; C_d     0.01; C_e     0.15; C_f     0.16; C_g    -0.03; C_h     0.24; C_i     0.18; C_j     0.19; 
@             C_k     0.41; C_l    -0.23; N_a    -0.97; N_b     0.59; O_a    -1.04; O_b    -1.20; H_a     0.53; H_b     0.34; H_c    -0.09; H_d    -0.20; 
@             H_e    -0.15; H_f    -0.10; H_g    -0.05; H_h    -0.03; H_i    -0.01; H_j    -0.01; H_k     0.32; H_l     0.73; H_m    -0.05; H_n     0.05; 
 -----------------------------------------------------------------------------
  16  Screening settings (-IFTHRS, JTDIIS, DIFDEN, times)  -14   16    T  3.60D+01  3.62D+01
@ 16    -721.235944562        1.09359D-05   -8.94D-11    8
      Virial theorem: -V/T =      2.002602
@    MULPOP   C_a     0.10; C_b     0.07; C_c     0.08; C_d     0.01; C_e     0.15; C_f     0.16; C_g    -0.03; C_h     0.24; C_i     0.18; C_j     0.19; 
@             C_k     0.41; C_l    -0.23; N_a    -0.97; N_b     0.59; O_a    -1.04; O_b    -1.20; H_a     0.53; H_b     0.34; H_c    -0.09; H_d    -0.20; 
@             H_e    -0.15; H_f    -0.10; H_g    -0.05; H_h    -0.03; H_i    -0.01; H_j    -0.01; H_k     0.32; H_l     0.73; H_m    -0.05; H_n     0.05; 
 -----------------------------------------------------------------------------
  17  Screening settings (-IFTHRS, JTDIIS, DIFDEN, times)  -14   17    T  3.59D+01  3.60D+01
@ 17    -721.235944562        6.37755D-06   -2.00D-11    8

@ *** DIIS converged in  17 iterations !
@     Converged SCF energy, gradient:   -721.235944562235    6.38D-06
    - total time used in SIRFCK :              0.00 seconds


 *** SCF orbital energy analysis ***

 Only the 20 lowest virtual orbital energies printed in each symmetry.

 Number of electrons :  116
 Orbital occupations :   58

 Sym       Hartree-Fock orbital energies

1 A     -20.58323058   -20.58043550   -15.83385023   -15.59984220   -11.31147144
        -11.28517100   -11.28298034   -11.27448588   -11.26652130   -11.26346172
        -11.26152362   -11.25305340   -11.24702466   -11.24199310   -11.23655159
        -11.23377747    -1.57361107    -1.37137475    -1.24503283    -1.13821116
         -1.11986455    -1.09847818    -1.06741736    -1.02776355    -0.98083481
         -0.93552703    -0.86947181    -0.82286607    -0.79310196    -0.78083356
         -0.77052813    -0.76492366    -0.73126054    -0.72459604    -0.70767448
         -0.69167874    -0.68778799    -0.65855616    -0.65021384    -0.62530867
         -0.60097119    -0.59037249    -0.56902291    -0.54861441    -0.54677003
         -0.53227834    -0.53021312    -0.51859833    -0.50828770    -0.49264251
         -0.47656022    -0.47394494    -0.46690472    -0.43538503    -0.42816983
         -0.37674878    -0.31493221    -0.24938637    -0.00122510     0.00375818
          0.00684235     0.00983816     0.01117092     0.01222399     0.01533708
          0.01709187     0.01814293     0.01838238     0.02026294     0.02052910
          0.02243842     0.02305762     0.02321129     0.02437960     0.02739177
          0.02850281     0.03004768     0.03073214

    E(LUMO) :    -0.00122510 au (symmetry 1)
  - E(HOMO) :    -0.24938637 au (symmetry 1)
  ------------------------------------------
    gap     :     0.24816127 au

 --- Writing SIRIFC interface file

 CPU and wall time for SCF :     952.663     957.900


                       .-----------------------------------.
                       | --- Final results from SIRIUS --- |
                       `-----------------------------------'


@    Spin multiplicity:           1
@    Spatial symmetry:            1 ( irrep  A   in C1  )
@    Total charge of molecule:    0

@    Final HF energy:            -721.235944562235                 
@    Nuclear repulsion:           839.879465627210
@    Electronic energy:         -1561.115410189446

@    Final gradient norm:           0.000006377545

 
     Date and time (Linux)  : Tue May 27 15:07:06 2025
     Host name              : xm023                                   

File label for MO orbitals:  27May25   FOCKDIIS

 (Only coefficients > 0.0100 are printed.)

 Molecular orbitals for symmetry species 1  (A  )
 ------------------------------------------------

    Orbital        49       50       51       52       53       54       55
   4 C_a :1s    -0.1499  -0.0000  -0.0933   0.0380  -0.0000  -0.0000   0.0000
   5 C_a :1s    -0.0269  -0.0000  -0.0160   0.0012  -0.0000  -0.0000   0.0000
   6 C_a :1s    -0.0767  -0.0000  -0.0142   0.0120  -0.0000  -0.0000   0.0000
   7 C_a :2px   -0.0297  -0.0000   0.0005  -0.0000  -0.0000  -0.0000   0.0000
   9 C_a :2pz   -0.0000   0.0337   0.0000   0.0000   0.0310  -0.0017   0.0292
  13 C_a :2px    0.0050  -0.0000   0.0245   0.0105  -0.0000  -0.0000  -0.0000
  14 C_a :2py    0.0241   0.0000   0.0217  -0.0111   0.0000   0.0000  -0.0000
  15 C_a :2pz    0.0000   0.0328  -0.0000  -0.0000  -0.0064  -0.0059   0.0021
  16 C_a :2px    0.0031   0.0000  -0.0379   0.0150  -0.0000   0.0000  -0.0000
  17 C_a :2py   -0.0615  -0.0000   0.0884  -0.0238  -0.0000  -0.0000   0.0000
  18 C_a :2pz    0.0000   0.1766   0.0000  -0.0000  -0.0512   0.0103  -0.0025
  19 C_a :2px    0.0069  -0.0000  -0.0103   0.0316   0.0000  -0.0000  -0.0000
  20 C_a :2py   -0.0186   0.0000  -0.0124  -0.0241  -0.0000  -0.0000   0.0000
  21 C_a :2pz    0.0000  -0.0140   0.0000  -0.0000   0.0011  -0.0047   0.0021
  28 C_a :3d1-   0.0000   0.0035   0.0000  -0.0000   0.0093   0.0016  -0.0170
  32 C_a :3d2-   0.0008  -0.0000  -0.0284   0.0143  -0.0000  -0.0000   0.0000
  33 C_a :3d1-  -0.0000  -0.0278  -0.0000   0.0000  -0.0319   0.0007   0.0180
  35 C_a :3d1+  -0.0000  -0.0015  -0.0000   0.0000   0.0134   0.0027  -0.0064
  36 C_a :3d2+  -0.0564  -0.0000   0.0006  -0.0053  -0.0000  -0.0000   0.0000
  37 C_a :3d2-   0.0238   0.0000   0.0130  -0.0021   0.0000   0.0000  -0.0000
  38 C_a :3d1-   0.0000  -0.0267  -0.0000  -0.0000   0.0071   0.0127   0.0037
  39 C_a :3d0    0.0134   0.0000   0.0109  -0.0202   0.0000   0.0000  -0.0000
  40 C_a :3d1+  -0.0000  -0.0237  -0.0000   0.0000   0.0031  -0.0097  -0.0029
  41 C_a :3d2+   0.0028   0.0000  -0.0176   0.0151   0.0000   0.0000   0.0000
  56 C_a :4f3-   0.0258   0.0000   0.0002   0.0025   0.0000   0.0000  -0.0000
  62 C_a :4f3+  -0.0000  -0.0000  -0.0176   0.0090  -0.0000  -0.0000   0.0000
  64 C_b :1s     0.0584   0.0000   0.0029  -0.0002   0.0000   0.0000  -0.0000
  66 C_b :1s    -0.2711  -0.0000   0.0434   0.0016  -0.0000  -0.0000   0.0000
  67 C_b :1s    -0.1001  -0.0000  -0.0460   0.0292  -0.0000  -0.0000   0.0000
  68 C_b :1s     0.0043  -0.0000  -0.0358   0.0422  -0.0000  -0.0000   0.0000
  69 C_b :2px    0.1726   0.0000   0.0035  -0.0003   0.0000   0.0000  -0.0000
  70 C_b :2py   -0.0921  -0.0000  -0.0062   0.0004  -0.0000  -0.0000   0.0000
  71 C_b :2pz    0.0000  -0.0202   0.0000  -0.0000  -0.1068  -0.0200   0.2160
  76 C_b :2py    0.0897   0.0000   0.0419   0.0008   0.0000   0.0000  -0.0000
  77 C_b :2pz   -0.0000  -0.0094  -0.0000   0.0000  -0.0408  -0.0002   0.0318
  78 C_b :2px    0.0136   0.0000  -0.0151  -0.0048   0.0000   0.0000  -0.0000
  79 C_b :2py   -0.0075  -0.0000  -0.0404   0.0772  -0.0000  -0.0000   0.0000
  80 C_b :2pz    0.0000   0.0023   0.0000  -0.0000   0.0056  -0.0120   0.0679
  81 C_b :2px   -0.0123  -0.0000  -0.0116  -0.0261  -0.0000  -0.0000   0.0000
  82 C_b :2py    0.0253  -0.0000   0.0132   0.0471   0.0000   0.0000  -0.0000
  83 C_b :2pz   -0.0000  -0.0079  -0.0000   0.0000   0.0139   0.0104  -0.0040
  93 C_b :3d2+  -0.0130  -0.0000   0.0002  -0.0002  -0.0000   0.0000   0.0000
  94 C_b :3d2-  -0.0225   0.0000   0.0051  -0.0051   0.0000   0.0000  -0.0000
  95 C_b :3d1-  -0.0000  -0.0589  -0.0000   0.0000  -0.0063   0.0083  -0.0063
  96 C_b :3d0   -0.0370  -0.0000  -0.0023  -0.0001  -0.0000  -0.0000   0.0000
  97 C_b :3d1+  -0.0000  -0.0098  -0.0000   0.0000  -0.0243   0.0004   0.0171
  98 C_b :3d2+  -0.0905  -0.0000  -0.0123   0.0220  -0.0000  -0.0000   0.0000
  99 C_b :3d2-  -0.0379  -0.0000  -0.0085   0.0446  -0.0000  -0.0000   0.0000
 100 C_b :3d1-  -0.0000  -0.0819  -0.0000   0.0000   0.0036  -0.0372   0.0115
 101 C_b :3d0   -0.0190  -0.0000  -0.0096   0.0225  -0.0000  -0.0000   0.0000
 102 C_b :3d1+   0.0000   0.0049  -0.0000   0.0000   0.0100  -0.0034   0.0131
 103 C_b :3d2+  -0.0223  -0.0000   0.0051   0.0095  -0.0000  -0.0000   0.0000
 118 C_b :4f3-   0.0235   0.0000  -0.0212  -0.0017   0.0000   0.0000  -0.0000
 119 C_b :4f2-  -0.0000  -0.0166   0.0000   0.0000  -0.0012   0.0007  -0.0015
 123 C_b :4f2+  -0.0000  -0.0157   0.0000   0.0000  -0.0170   0.0008   0.0032
 124 C_b :4f3+  -0.0179  -0.0000  -0.0073   0.0206  -0.0000  -0.0000   0.0000
 126 C_c :1s     0.0459   0.0000  -0.0027   0.0003   0.0000   0.0000  -0.0000
 128 C_c :1s    -0.3504  -0.0000  -0.0137   0.0185  -0.0000  -0.0000   0.0000
 129 C_c :1s    -0.1542  -0.0000   0.0151  -0.0056  -0.0000  -0.0000   0.0000
 130 C_c :1s    -0.0155  -0.0000   0.0281  -0.0165  -0.0000  -0.0000  -0.0000
 131 C_c :2px   -0.2485  -0.0000  -0.0025   0.0001  -0.0000  -0.0000   0.0000
 133 C_c :2pz    0.0000  -0.0914   0.0000  -0.0000  -0.2527  -0.0310   0.3069
 137 C_c :2px   -0.0176   0.0000   0.0281  -0.0314   0.0000   0.0000  -0.0000
 138 C_c :2py    0.1051   0.0000  -0.0242  -0.0223   0.0000   0.0000  -0.0000
 139 C_c :2pz   -0.0000  -0.0245  -0.0000   0.0000  -0.0157   0.0009  -0.0035
 140 C_c :2px   -0.0361  -0.0000  -0.0015   0.0171  -0.0000  -0.0000   0.0000
 141 C_c :2py   -0.0409   0.0000  -0.0184  -0.0370  -0.0000  -0.0000   0.0000
 142 C_c :2pz    0.0000  -0.0619   0.0000  -0.0000  -0.0065  -0.0301   0.0594
 143 C_c :2px   -0.0053   0.0000   0.0305  -0.0382  -0.0000   0.0000  -0.0000
 144 C_c :2py    0.0240   0.0000   0.0233  -0.0541   0.0000   0.0000  -0.0000
 145 C_c :2pz   -0.0000   0.0246  -0.0000   0.0000  -0.0064   0.0159  -0.0101
 150 C_c :3d2+  -0.0105  -0.0000  -0.0000  -0.0000  -0.0000  -0.0000   0.0000
 151 C_c :3d2-  -0.0142  -0.0000  -0.0020   0.0008  -0.0000  -0.0000   0.0000
 152 C_c :3d1-  -0.0000   0.0046  -0.0000   0.0000   0.0110   0.0009  -0.0077
 155 C_c :3d2+  -0.0218  -0.0000  -0.0013   0.0012  -0.0000  -0.0000   0.0000
 156 C_c :3d2-  -0.0433  -0.0000  -0.0195   0.0105  -0.0000  -0.0000   0.0000
 157 C_c :3d1-   0.0000  -0.0336   0.0000  -0.0000   0.0575   0.0072  -0.0634
 158 C_c :3d0   -0.0206  -0.0000   0.0059  -0.0005  -0.0000  -0.0000   0.0000
 159 C_c :3d1+   0.0000   0.0436   0.0000  -0.0000   0.0039  -0.0048   0.0183
 160 C_c :3d2+  -0.1361  -0.0000  -0.0261   0.0369  -0.0000  -0.0000   0.0000
 161 C_c :3d2-   0.0439   0.0000   0.0245  -0.0385   0.0000   0.0000  -0.0000
 162 C_c :3d1-  -0.0000  -0.0590  -0.0000   0.0000   0.0086   0.0576  -0.0412
 163 C_c :3d0   -0.0090  -0.0000   0.0004  -0.0148  -0.0000  -0.0000   0.0000
 164 C_c :3d1+   0.0000   0.0355   0.0000  -0.0000  -0.0106  -0.0073  -0.0021
 165 C_c :3d2+  -0.0341  -0.0000   0.0325  -0.0519  -0.0000  -0.0000   0.0000
 180 C_c :4f3-   0.0675   0.0000   0.0301  -0.0183   0.0000   0.0000  -0.0000
 181 C_c :4f2-  -0.0000  -0.0050  -0.0000   0.0000  -0.0114  -0.0012  -0.0027
 183 C_c :4f0   -0.0000  -0.0034  -0.0000   0.0000   0.0045   0.0025  -0.0113
 184 C_c :4f1+   0.0106   0.0000   0.0013  -0.0035   0.0000   0.0000  -0.0000
 185 C_c :4f2+  -0.0000  -0.0246  -0.0000   0.0000   0.0104   0.0063  -0.0227
 188 C_d :1s     0.0689   0.0000   0.0052  -0.0003   0.0000   0.0000  -0.0000
 190 C_d :1s    -0.3337  -0.0000  -0.0695  -0.0029  -0.0000  -0.0000   0.0000
 191 C_d :1s    -0.0879  -0.0000  -0.0091   0.0439  -0.0000  -0.0000   0.0000
 192 C_d :1s     0.1218   0.0000   0.0004   0.0002   0.0000   0.0000  -0.0000
 193 C_d :2px    0.3618   0.0000   0.0089  -0.0002   0.0000   0.0000  -0.0000
 194 C_d :2py   -0.0556   0.0000  -0.0134   0.0008   0.0000   0.0000  -0.0000
 195 C_d :2pz    0.0000  -0.1417   0.0000   0.0000  -0.3170  -0.0287   0.2586
 199 C_d :2px    0.0564  -0.0000  -0.0276  -0.0110  -0.0000  -0.0000   0.0000
 200 C_d :2py    0.1112   0.0000   0.0325  -0.0226   0.0000   0.0000  -0.0000
 201 C_d :2pz   -0.0000   0.0057  -0.0000   0.0000   0.0299   0.0023  -0.0353
 202 C_d :2px   -0.0118   0.0000   0.0589  -0.0569   0.0000   0.0000  -0.0000
 203 C_d :2py    0.0340   0.0000   0.0592  -0.0415   0.0000   0.0000  -0.0000
 204 C_d :2pz    0.0000   0.0336   0.0000  -0.0000  -0.1164  -0.0020   0.0977
 205 C_d :2px    0.0293   0.0000  -0.0124   0.0622   0.0000   0.0000  -0.0000
 206 C_d :2py    0.0129   0.0000  -0.0180  -0.0188   0.0000   0.0000   0.0000
 207 C_d :2pz    0.0000   0.0122   0.0000  -0.0000  -0.0329  -0.0430  -0.0019
 208 C_d :3d2-  -0.0102  -0.0000  -0.0005   0.0000  -0.0000  -0.0000   0.0000
 212 C_d :3d2+  -0.0125  -0.0000   0.0001  -0.0000  -0.0000  -0.0000   0.0000
 213 C_d :3d2-  -0.0172   0.0000  -0.0019   0.0004   0.0000  -0.0000   0.0000
 216 C_d :3d1+   0.0000  -0.0067   0.0000   0.0000  -0.0130  -0.0010   0.0072
 217 C_d :3d2+  -0.0244  -0.0000  -0.0012   0.0005  -0.0000  -0.0000   0.0000
 218 C_d :3d2-  -0.0459  -0.0000  -0.0523   0.0395  -0.0000  -0.0000   0.0000
 219 C_d :3d1-   0.0000  -0.0372   0.0000  -0.0000   0.0418   0.0098  -0.0391
 220 C_d :3d0   -0.0340  -0.0000  -0.0088   0.0058  -0.0000  -0.0000   0.0000
 221 C_d :3d1+  -0.0000  -0.0192  -0.0000   0.0000  -0.0105  -0.0007  -0.0097
 222 C_d :3d2+  -0.0923  -0.0000  -0.0071   0.0017  -0.0000  -0.0000   0.0000
 223 C_d :3d2-  -0.0466  -0.0000   0.0318   0.0979  -0.0000  -0.0000   0.0000
 224 C_d :3d1-  -0.0000  -0.0482  -0.0000   0.0000   0.0135  -0.0439  -0.0631
 225 C_d :3d0   -0.0474  -0.0000  -0.0275   0.0083  -0.0000  -0.0000   0.0000
 226 C_d :3d1+   0.0000   0.0172   0.0000  -0.0000  -0.0231   0.0113   0.0166
 227 C_d :3d2+  -0.0219  -0.0000  -0.0839   0.0222  -0.0000  -0.0000   0.0000
 242 C_d :4f3-  -0.0083   0.0000  -0.0184  -0.0065   0.0000   0.0000   0.0000
 243 C_d :4f2-   0.0000  -0.0125   0.0000  -0.0000   0.0240   0.0030  -0.0182
 245 C_d :4f0   -0.0000  -0.0000  -0.0000   0.0000   0.0151   0.0010  -0.0164
 247 C_d :4f2+  -0.0000  -0.0164  -0.0000   0.0000   0.0086   0.0046  -0.0232
 248 C_d :4f3+  -0.0044  -0.0000   0.0195  -0.0064  -0.0000  -0.0000   0.0000
 250 C_e :1s     0.0817   0.0000  -0.0043   0.0006   0.0000   0.0000  -0.0000
 252 C_e :1s    -0.4072  -0.0000  -0.0183   0.0312  -0.0000  -0.0000   0.0000
 253 C_e :1s    -0.1394  -0.0000  -0.0030  -0.0682  -0.0000  -0.0000   0.0000
 254 C_e :1s     0.0553   0.0000   0.0517  -0.0540   0.0000   0.0000  -0.0000
 255 C_e :2px   -0.3602  -0.0000  -0.0068  -0.0005  -0.0000  -0.0000   0.0000
 256 C_e :2py    0.0525   0.0000   0.0188  -0.0020   0.0000  -0.0000  -0.0000
 257 C_e :2pz   -0.0000  -0.2053  -0.0000   0.0000  -0.3116  -0.0082   0.0179
 261 C_e :2px   -0.0265   0.0000  -0.0334   0.0096   0.0000   0.0000  -0.0000
 262 C_e :2py   -0.0990   0.0000  -0.0147   0.0538  -0.0000  -0.0000   0.0000
 263 C_e :2pz    0.0000   0.0115   0.0000  -0.0000   0.0074   0.0051  -0.0150
 264 C_e :2px   -0.0730  -0.0000   0.0201  -0.0328  -0.0000  -0.0000   0.0000
 265 C_e :2py    0.0235  -0.0000  -0.0136   0.0403  -0.0000  -0.0000  -0.0000
 266 C_e :2pz   -0.0000  -0.0332  -0.0000   0.0000  -0.0806   0.0418   0.0200
 267 C_e :2px   -0.0111  -0.0000  -0.0567   0.0319  -0.0000  -0.0000   0.0000
 268 C_e :2py   -0.0029  -0.0000  -0.0219   0.0355  -0.0000  -0.0000   0.0000
 269 C_e :2pz    0.0000  -0.0209   0.0000  -0.0000   0.0247  -0.0122   0.0299
 270 C_e :3d2-  -0.0110  -0.0000  -0.0009   0.0000  -0.0000  -0.0000   0.0000
 274 C_e :3d2+  -0.0131  -0.0000  -0.0000  -0.0000  -0.0000  -0.0000   0.0000
 275 C_e :3d2-  -0.0188  -0.0000  -0.0013   0.0011  -0.0000  -0.0000   0.0000
 276 C_e :3d1-  -0.0000   0.0058  -0.0000   0.0000   0.0047  -0.0011   0.0117
 278 C_e :3d1+   0.0000   0.0083   0.0000  -0.0000   0.0125   0.0005  -0.0036
 279 C_e :3d2+  -0.0250  -0.0000   0.0006   0.0007  -0.0000  -0.0000   0.0000
 280 C_e :3d2-  -0.0186  -0.0000  -0.0002  -0.0086  -0.0000  -0.0000   0.0000
 281 C_e :3d1-   0.0000  -0.0359   0.0000  -0.0000   0.0677   0.0169  -0.0219
 282 C_e :3d0   -0.0364  -0.0000  -0.0074  -0.0040  -0.0000  -0.0000   0.0000
 283 C_e :3d1+  -0.0000   0.0366  -0.0000   0.0000  -0.0044  -0.0075   0.0090
 284 C_e :3d2+  -0.1072  -0.0000   0.0071   0.0067  -0.0000  -0.0000   0.0000
 285 C_e :3d2-   0.0194  -0.0000   0.0052  -0.0634   0.0000   0.0000  -0.0000
 286 C_e :3d1-  -0.0000  -0.0340  -0.0000   0.0000   0.0774   0.0582  -0.0794
 287 C_e :3d0   -0.0291  -0.0000   0.0245  -0.0323  -0.0000  -0.0000   0.0000
 288 C_e :3d1+   0.0000   0.0087  -0.0000  -0.0000   0.0153  -0.0152   0.0109
 289 C_e :3d2+  -0.0929  -0.0000   0.0281   0.0222  -0.0000  -0.0000   0.0000
 304 C_e :4f3-   0.0366   0.0000   0.0040  -0.0096   0.0000   0.0000  -0.0000
 307 C_e :4f0    0.0000   0.0076  -0.0000  -0.0000   0.0134   0.0027  -0.0042
 308 C_e :4f1+   0.0108   0.0000   0.0037   0.0045   0.0000   0.0000  -0.0000
 309 C_e :4f2+   0.0000  -0.0103   0.0000  -0.0000   0.0158   0.0060  -0.0004
 310 C_e :4f3+  -0.0144  -0.0000  -0.0156   0.0133  -0.0000  -0.0000   0.0000
 312 C_f :1s     0.0520   0.0000   0.0095  -0.0008   0.0000   0.0000  -0.0000
 314 C_f :1s    -0.3680  -0.0000   0.0560   0.0180  -0.0000  -0.0000   0.0000
 315 C_f :1s    -0.1096  -0.0000   0.0164  -0.0426  -0.0000  -0.0000   0.0000
 316 C_f :1s     0.0402   0.0000  -0.0180  -0.0177   0.0000   0.0000  -0.0000
 317 C_f :2px    0.3060   0.0000   0.0179   0.0003   0.0000   0.0000  -0.0000
 318 C_f :2py   -0.0136   0.0000  -0.0266   0.0024   0.0000   0.0000  -0.0000
 319 C_f :2pz   -0.0000  -0.2508  -0.0000   0.0000  -0.2621   0.0086  -0.1538
 323 C_f :2px    0.0379   0.0000   0.0107   0.0080  -0.0000  -0.0000   0.0000
 324 C_f :2py   -0.0339  -0.0000  -0.0495   0.0436  -0.0000  -0.0000   0.0000
 325 C_f :2pz    0.0000   0.0068   0.0000  -0.0000   0.0033   0.0100   0.0176
 326 C_f :2px    0.0008   0.0000   0.0011   0.0252   0.0000   0.0000  -0.0000
 327 C_f :2py    0.0051   0.0000  -0.0202  -0.0673   0.0000   0.0000  -0.0000
 328 C_f :2pz   -0.0000  -0.1125  -0.0000   0.0000  -0.0658  -0.0945  -0.0207
 329 C_f :2px   -0.0472  -0.0000   0.0583  -0.1012  -0.0000  -0.0000   0.0000
 330 C_f :2py   -0.0150  -0.0000   0.0296   0.0008  -0.0000  -0.0000   0.0000
 331 C_f :2pz   -0.0000  -0.0281  -0.0000   0.0000   0.0420   0.0805   0.0214
 332 C_f :3d2-  -0.0106  -0.0000  -0.0011   0.0000  -0.0000  -0.0000  -0.0000
 336 C_f :3d2+  -0.0110  -0.0000   0.0002  -0.0001  -0.0000  -0.0000   0.0000
 337 C_f :3d2-  -0.0166   0.0000  -0.0007   0.0003  -0.0000  -0.0000   0.0000
 340 C_f :3d1+  -0.0000  -0.0114  -0.0000   0.0000  -0.0096   0.0004  -0.0074
 341 C_f :3d2+  -0.0221  -0.0000  -0.0018  -0.0007  -0.0000  -0.0000   0.0000
 342 C_f :3d2-  -0.0284  -0.0000  -0.0001  -0.0026  -0.0000  -0.0000   0.0000
 343 C_f :3d1-   0.0000  -0.0673   0.0000  -0.0000   0.0839   0.0118  -0.0196
 344 C_f :3d0   -0.0292  -0.0000   0.0109   0.0104  -0.0000  -0.0000   0.0000
 345 C_f :3d1+   0.0000  -0.0203   0.0000  -0.0000  -0.0349   0.0023   0.0203
 346 C_f :3d2+  -0.1225  -0.0000   0.0161   0.0172  -0.0000  -0.0000   0.0000
 347 C_f :3d2-   0.0071  -0.0000   0.0027  -0.0273   0.0000  -0.0000  -0.0000
 348 C_f :3d1-  -0.0000  -0.0554  -0.0000   0.0000   0.1175  -0.0055  -0.1045
 349 C_f :3d0   -0.0334  -0.0000   0.0098   0.0211  -0.0000  -0.0000   0.0000
 350 C_f :3d1+  -0.0000  -0.0129  -0.0000   0.0000  -0.0396  -0.0030   0.0334
 351 C_f :3d2+  -0.0192   0.0000   0.0502  -0.0952  -0.0000   0.0000  -0.0000
 366 C_f :4f3-  -0.0429   0.0000  -0.0282  -0.0224  -0.0000  -0.0000   0.0000
 367 C_f :4f2-   0.0000  -0.0153   0.0000  -0.0000   0.0159  -0.0012   0.0130
 369 C_f :4f0    0.0000   0.0054   0.0000  -0.0000   0.0106   0.0041   0.0101
 371 C_f :4f2+   0.0000  -0.0128   0.0000  -0.0000  -0.0003   0.0060   0.0205
 372 C_f :4f3+   0.0059   0.0000   0.0114  -0.0010   0.0000   0.0000  -0.0000
 374 C_g :1s     0.0740   0.0000  -0.0096  -0.0004   0.0000   0.0000  -0.0000
 376 C_g :1s    -0.2245  -0.0000  -0.0264  -0.0274  -0.0000  -0.0000   0.0000
 377 C_g :1s    -0.0748  -0.0000  -0.0057   0.0556  -0.0000  -0.0000   0.0000
 378 C_g :1s     0.0085   0.0000  -0.0032   0.0314   0.0000  -0.0000   0.0000
 379 C_g :2px   -0.2495  -0.0000  -0.0135  -0.0004  -0.0000  -0.0000   0.0000
 380 C_g :2py    0.0864  -0.0000   0.0383  -0.0016  -0.0000  -0.0000   0.0000
 381 C_g :2pz   -0.0000  -0.2974   0.0000   0.0000  -0.1070   0.0278  -0.2985
 385 C_g :2px   -0.0001   0.0000   0.0203  -0.0540   0.0000   0.0000  -0.0000
 386 C_g :2py   -0.1406  -0.0000  -0.0407   0.0227  -0.0000  -0.0000   0.0000
 387 C_g :2pz    0.0000  -0.0169   0.0000  -0.0000   0.0070   0.0037   0.0216
 388 C_g :2px   -0.0005  -0.0000  -0.1537   0.1062  -0.0000  -0.0000   0.0000
 389 C_g :2py   -0.0177  -0.0000   0.0314   0.0091  -0.0000  -0.0000   0.0000
 390 C_g :2pz   -0.0000   0.0053  -0.0000   0.0000  -0.0116   0.0525  -0.1648
 391 C_g :2px    0.0452   0.0000   0.0458  -0.0026   0.0000   0.0000  -0.0000
 392 C_g :2py   -0.0318  -0.0000   0.0244  -0.0303  -0.0000  -0.0000  -0.0000
 393 C_g :2pz   -0.0000   0.0235   0.0000   0.0000  -0.0518  -0.0255  -0.0517
 399 C_g :3d2-  -0.0138  -0.0000  -0.0024   0.0000   0.0000   0.0000   0.0000
 402 C_g :3d1+  -0.0000   0.0122  -0.0000   0.0000   0.0058  -0.0010   0.0093
 403 C_g :3d2+  -0.0175  -0.0000  -0.0007  -0.0013  -0.0000  -0.0000   0.0000
 404 C_g :3d2-   0.0088  -0.0000   0.0542  -0.0012  -0.0000  -0.0000   0.0000
 405 C_g :3d1-  -0.0000  -0.0225  -0.0000   0.0000   0.1056  -0.0067  -0.0087
 406 C_g :3d0   -0.0285  -0.0000   0.0127   0.0002  -0.0000  -0.0000   0.0000
 407 C_g :3d1+   0.0000   0.0584  -0.0000   0.0000  -0.0209   0.0018  -0.0226
 408 C_g :3d2+  -0.1037  -0.0000  -0.0391   0.0201  -0.0000  -0.0000   0.0000
 409 C_g :3d2-  -0.0310  -0.0000  -0.0088   0.0833  -0.0000  -0.0000   0.0000
 410 C_g :3d1-   0.0000   0.0261   0.0000  -0.0000   0.1008   0.0108  -0.0439
 411 C_g :3d0   -0.0484  -0.0000  -0.0336   0.0560  -0.0000  -0.0000   0.0000
 412 C_g :3d1+   0.0000   0.0001   0.0000  -0.0000  -0.0431   0.0083   0.0378
 413 C_g :3d2+   0.0083   0.0000  -0.1078  -0.0344  -0.0000   0.0000  -0.0000
 428 C_g :4f3-   0.0216   0.0000   0.0130  -0.0268   0.0000   0.0000  -0.0000
 429 C_g :4f2-   0.0000  -0.0068   0.0000  -0.0000  -0.0096  -0.0016   0.0181
 430 C_g :4f1-   0.0007  -0.0000  -0.0129  -0.0042  -0.0000  -0.0000   0.0000
 431 C_g :4f0    0.0000   0.0033   0.0000  -0.0000   0.0030  -0.0034   0.0194
 433 C_g :4f2+   0.0000  -0.0250   0.0000  -0.0000   0.0068  -0.0047   0.0364
 434 C_g :4f3+   0.0099   0.0000   0.0166  -0.0062   0.0000   0.0000  -0.0000
 436 C_h :1s     0.0180   0.0000   0.0177  -0.0057   0.0000   0.0000  -0.0000
 438 C_h :1s    -0.2202  -0.0000  -0.0513  -0.0808  -0.0000  -0.0000   0.0000
 439 C_h :1s    -0.0816  -0.0000   0.0247  -0.0440  -0.0000  -0.0000   0.0000
 440 C_h :1s    -0.0637  -0.0000  -0.0079   0.0620  -0.0000  -0.0000   0.0000
 441 C_h :2px    0.1399   0.0000   0.0325  -0.0095   0.0000   0.0000  -0.0000
 442 C_h :2py   -0.0180   0.0000  -0.0513   0.0080   0.0000   0.0000  -0.0000
 443 C_h :2pz    0.0000  -0.3243  -0.0000  -0.0000   0.0175   0.0308  -0.2826
 447 C_h :2px    0.0195  -0.0000  -0.0264   0.0380  -0.0000  -0.0000   0.0000
 448 C_h :2py   -0.1034   0.0000   0.0678  -0.0273  -0.0000  -0.0000   0.0000
 449 C_h :2pz   -0.0000   0.0009  -0.0000   0.0000  -0.0067  -0.0364   0.0130
 450 C_h :2px    0.0575   0.0000  -0.1249   0.1106   0.0000   0.0000  -0.0000
 451 C_h :2py    0.0080  -0.0000   0.0217   0.0891  -0.0000  -0.0000  -0.0000
 452 C_h :2pz    0.0000  -0.0321   0.0000  -0.0000   0.0258   0.0996  -0.1417
 453 C_h :2px    0.0449   0.0000  -0.0991   0.1130   0.0000   0.0000  -0.0000
 454 C_h :2py   -0.0119  -0.0000  -0.0603   0.0251  -0.0000  -0.0000   0.0000
 455 C_h :2pz    0.0000   0.0325   0.0000  -0.0000  -0.0331  -0.0772  -0.0317
 461 C_h :3d2-  -0.0102  -0.0000  -0.0021   0.0006  -0.0000  -0.0000   0.0000
 462 C_h :3d1-   0.0000  -0.0054   0.0000  -0.0000  -0.0053   0.0005  -0.0104
 464 C_h :3d1+   0.0000  -0.0142  -0.0000  -0.0000   0.0021   0.0011  -0.0082
 465 C_h :3d2+  -0.0108  -0.0000  -0.0009  -0.0005  -0.0000  -0.0000   0.0000
 466 C_h :3d2-  -0.0356  -0.0000   0.0763   0.0599  -0.0000  -0.0000   0.0000
 467 C_h :3d1-  -0.0000  -0.0166  -0.0000   0.0000   0.1012  -0.0036   0.0014
 468 C_h :3d0   -0.0097  -0.0000  -0.0223  -0.0196  -0.0000  -0.0000   0.0000
 469 C_h :3d1+  -0.0000  -0.0418  -0.0000   0.0000  -0.0317  -0.0131   0.0168
 470 C_h :3d2+  -0.0512  -0.0000   0.0223   0.0065  -0.0000  -0.0000   0.0000
 471 C_h :3d2-   0.0952   0.0000   0.0531  -0.1230   0.0000   0.0000  -0.0000
 472 C_h :3d1-   0.0000  -0.0004   0.0000  -0.0000   0.1209   0.0838   0.0188
 473 C_h :3d0    0.0109  -0.0000   0.0505  -0.1209   0.0000   0.0000  -0.0000
 474 C_h :3d1+   0.0000   0.0052   0.0000  -0.0000  -0.0197  -0.0065  -0.0323
 475 C_h :3d2+  -0.0613  -0.0000   0.1018  -0.0580  -0.0000  -0.0000   0.0000
 490 C_h :4f3-  -0.0412  -0.0000   0.0160  -0.0010  -0.0000  -0.0000   0.0000
 491 C_h :4f2-  -0.0000  -0.0106  -0.0000   0.0000   0.0121  -0.0113   0.0152
 493 C_h :4f0   -0.0000   0.0069  -0.0000   0.0000  -0.0020  -0.0108   0.0168
 495 C_h :4f2+  -0.0000  -0.0155  -0.0000   0.0000  -0.0098  -0.0107   0.0341
 496 C_h :4f3+   0.0146  -0.0000   0.0741   0.0624   0.0000  -0.0000  -0.0000
 498 C_i :1s     0.0447   0.0000  -0.0243  -0.0092   0.0000   0.0000  -0.0000
 500 C_i :1s    -0.1360  -0.0000   0.1870   0.0134  -0.0000  -0.0000   0.0000
 501 C_i :1s     0.0176  -0.0000   0.0028   0.0042  -0.0000  -0.0000   0.0000
 502 C_i :1s     0.0575  -0.0000  -0.0207   0.1006   0.0000  -0.0000  -0.0000
 503 C_i :2px   -0.1048  -0.0000  -0.0189   0.0222  -0.0000  -0.0000   0.0000
 504 C_i :2py    0.0676  -0.0000   0.0835   0.0127  -0.0000   0.0000   0.0000
 505 C_i :2pz    0.0000  -0.3237   0.0000  -0.0000   0.1920   0.0147  -0.0578
 509 C_i :2px   -0.0062  -0.0000  -0.0591   0.1024   0.0000  -0.0000   0.0000
 510 C_i :2py   -0.1036   0.0000  -0.0180  -0.0554  -0.0000  -0.0000  -0.0000
 511 C_i :2pz   -0.0000   0.0249  -0.0000   0.0000  -0.0056  -0.0353   0.0038
 512 C_i :2px    0.0105  -0.0000  -0.0671   0.1004  -0.0000  -0.0000   0.0000
 513 C_i :2py    0.0184   0.0000  -0.0383  -0.0441   0.0000   0.0000  -0.0000
 514 C_i :2pz    0.0000  -0.0658   0.0000  -0.0000   0.0004  -0.1226   0.0101
 515 C_i :2px   -0.0589  -0.0000   0.0017  -0.0330  -0.0000  -0.0000   0.0000
 517 C_i :2pz   -0.0000  -0.0334  -0.0000   0.0000   0.0571   0.0697   0.0517
 524 C_i :3d1-  -0.0000   0.0053  -0.0000   0.0000  -0.0091   0.0009  -0.0105
 526 C_i :3d1+  -0.0000   0.0133  -0.0000  -0.0000  -0.0054  -0.0015   0.0053
 528 C_i :3d2-   0.0423   0.0000   0.0890  -0.1134   0.0000   0.0000  -0.0000
 529 C_i :3d1-   0.0000  -0.0034   0.0000  -0.0000   0.0890   0.0286   0.0104
 530 C_i :3d0   -0.0153  -0.0000   0.0413   0.0306  -0.0000  -0.0000   0.0000
 531 C_i :3d1+   0.0000   0.0312   0.0000  -0.0000  -0.0216   0.0007  -0.0091
 532 C_i :3d2+  -0.0279  -0.0000   0.0383  -0.0263  -0.0000  -0.0000   0.0000
 533 C_i :3d2-  -0.0334  -0.0000   0.0388   0.0488  -0.0000  -0.0000   0.0000
 534 C_i :3d1-  -0.0000  -0.0016  -0.0000   0.0000   0.0934  -0.1262   0.0456
 535 C_i :3d0    0.0001   0.0000   0.0039   0.0315  -0.0000   0.0000  -0.0000
 536 C_i :3d1+  -0.0000   0.0279  -0.0000   0.0000  -0.0200   0.0555  -0.0141
 537 C_i :3d2+   0.0289   0.0000  -0.0438   0.1018   0.0000   0.0000  -0.0000
 552 C_i :4f3-  -0.0199  -0.0000   0.0131   0.0336  -0.0000  -0.0000   0.0000
 553 C_i :4f2-  -0.0000   0.0020  -0.0000   0.0000  -0.0221  -0.0251   0.0050
 554 C_i :4f1-  -0.0033   0.0000  -0.0013  -0.0183  -0.0000   0.0000  -0.0000
 555 C_i :4f0   -0.0000   0.0118  -0.0000   0.0000  -0.0099  -0.0075   0.0033
 558 C_i :4f3+   0.0003  -0.0000   0.0369   0.0512   0.0000   0.0000  -0.0000
 560 C_j :1s    -0.0063   0.0000   0.0359  -0.0064   0.0000   0.0000  -0.0000
 562 C_j :1s    -0.0770  -0.0000   0.0755  -0.0572  -0.0000  -0.0000   0.0000
 563 C_j :1s    -0.0028  -0.0000   0.0571   0.0372  -0.0000  -0.0000   0.0000
 564 C_j :1s    -0.0410   0.0000   0.0026  -0.0779  -0.0000   0.0000  -0.0000
 565 C_j :2px    0.0325   0.0000   0.0500  -0.0569   0.0000  -0.0000  -0.0000
 566 C_j :2py   -0.0207   0.0000  -0.1077  -0.0012   0.0000   0.0000  -0.0000
 567 C_j :2pz    0.0000  -0.3088   0.0000  -0.0000   0.2725   0.0007   0.1150
 571 C_j :2px    0.0170   0.0000  -0.0547  -0.0981  -0.0000   0.0000  -0.0000
 572 C_j :2py   -0.0757  -0.0000  -0.1216   0.0347  -0.0000  -0.0000   0.0000
 573 C_j :2pz    0.0000  -0.0229   0.0000  -0.0000  -0.0034   0.0257  -0.0159
 574 C_j :2px    0.0617   0.0000   0.0432  -0.1016   0.0000   0.0000  -0.0000
 575 C_j :2py    0.0463   0.0000  -0.0438  -0.0902   0.0000   0.0000   0.0000
 576 C_j :2pz   -0.0000  -0.1670  -0.0000  -0.0000   0.1255   0.0987   0.1051
 577 C_j :2px   -0.0109   0.0000   0.0922  -0.0752  -0.0000  -0.0000   0.0000
 578 C_j :2py    0.0044   0.0000   0.0704  -0.0632   0.0000   0.0000   0.0000
 579 C_j :2pz   -0.0000  -0.0094  -0.0000   0.0000   0.0144   0.0204   0.0152
 588 C_j :3d1+   0.0000  -0.0122   0.0000  -0.0000   0.0106   0.0009   0.0063
 590 C_j :3d2-   0.0234   0.0000   0.0521  -0.0566  -0.0000   0.0000  -0.0000
 591 C_j :3d1-   0.0000  -0.0307   0.0000  -0.0000   0.0808   0.0422   0.0407
 592 C_j :3d0   -0.0032   0.0000   0.0239  -0.0339  -0.0000  -0.0000   0.0000
 593 C_j :3d1+  -0.0000  -0.0372  -0.0000   0.0000  -0.0234   0.0090  -0.0162
 594 C_j :3d2+  -0.0180  -0.0000  -0.0641  -0.0268  -0.0000  -0.0000   0.0000
 595 C_j :3d2-   0.0173  -0.0000   0.1203  -0.0096   0.0000   0.0000   0.0000
 596 C_j :3d1-  -0.0000   0.0946  -0.0000   0.0000   0.0934   0.1329   0.0308
 597 C_j :3d0    0.0206  -0.0000  -0.0594   0.0451   0.0000  -0.0000   0.0000
 598 C_j :3d1+   0.0000  -0.0845  -0.0000  -0.0000  -0.0087   0.0102   0.0190
 599 C_j :3d2+  -0.0065  -0.0000  -0.0350   0.0042  -0.0000  -0.0000   0.0000
 614 C_j :4f3-  -0.0106   0.0000  -0.0385  -0.0710  -0.0000   0.0000  -0.0000
 615 C_j :4f2-   0.0000  -0.0131   0.0000  -0.0000   0.0039   0.0035  -0.0043
 616 C_j :4f1-   0.0021  -0.0000  -0.0436  -0.0038  -0.0000   0.0000  -0.0000
 617 C_j :4f0    0.0000   0.0036   0.0000  -0.0000  -0.0105   0.0013  -0.0068
 618 C_j :4f1+  -0.0025   0.0000   0.0076  -0.0132  -0.0000  -0.0000   0.0000
 619 C_j :4f2+   0.0000  -0.0160   0.0000  -0.0000  -0.0234   0.0102  -0.0072
 620 C_j :4f3+   0.0055   0.0000   0.0016   0.0428   0.0000   0.0000  -0.0000
 622 C_k :1s     0.0228   0.0000  -0.0335   0.0487  -0.0000   0.0000   0.0000
 624 C_k :1s    -0.0150   0.0000  -0.1313   0.1411  -0.0000  -0.0000   0.0000
 625 C_k :1s     0.0741   0.0000   0.0300  -0.0322   0.0000   0.0000  -0.0000
 626 C_k :1s     0.0139  -0.0000  -0.0156  -0.0283   0.0000   0.0000   0.0000
 627 C_k :2px   -0.0277   0.0000  -0.0228   0.0705   0.0000   0.0000  -0.0000
 628 C_k :2py    0.0268   0.0000   0.1594  -0.0332   0.0000   0.0000  -0.0000
 629 C_k :2pz   -0.0000  -0.2246  -0.0000   0.0000   0.2701  -0.0191   0.2810
 633 C_k :2px    0.0279   0.0000  -0.1514  -0.0398   0.0000   0.0000   0.0000
 634 C_k :2py    0.0010  -0.0000   0.1199   0.0234   0.0000   0.0000   0.0000
 635 C_k :2pz    0.0000  -0.0186   0.0000  -0.0000   0.0057   0.0131   0.0025
 636 C_k :2px    0.0051   0.0000   0.0776  -0.0685  -0.0000  -0.0000   0.0000
 637 C_k :2py    0.0339  -0.0000  -0.0703   0.0074   0.0000   0.0000   0.0000
 638 C_k :2pz   -0.0000  -0.0425  -0.0000   0.0000   0.0803  -0.2175   0.0856
 639 C_k :2px    0.0638   0.0000  -0.0303   0.0790   0.0000   0.0000  -0.0000
 640 C_k :2py   -0.0607  -0.0000  -0.0390  -0.0420  -0.0000  -0.0000   0.0000
 641 C_k :2pz    0.0000   0.0220   0.0000  -0.0000  -0.0315  -0.0605  -0.0264
 650 C_k :3d1+   0.0000   0.0105   0.0000  -0.0000  -0.0110  -0.0015  -0.0082
 652 C_k :3d2-   0.0030  -0.0000   0.1894   0.0137  -0.0000  -0.0000   0.0000
 653 C_k :3d1-   0.0000   0.0418  -0.0000  -0.0000   0.0566  -0.0072   0.0423
 654 C_k :3d0    0.0019  -0.0000  -0.0293   0.0028   0.0000  -0.0000  -0.0000
 655 C_k :3d1+  -0.0000   0.0321  -0.0000   0.0000  -0.0240   0.0183  -0.0172
 656 C_k :3d2+   0.0001  -0.0000  -0.0676  -0.0808  -0.0000  -0.0000   0.0000
 657 C_k :3d2-  -0.0005   0.0000  -0.0748  -0.0874  -0.0000  -0.0000   0.0000
 658 C_k :3d1-  -0.0000   0.1265  -0.0000   0.0000   0.0235  -0.0292  -0.0362
 659 C_k :3d0   -0.0026   0.0000  -0.0047  -0.0295   0.0000   0.0000   0.0000
 660 C_k :3d1+   0.0000  -0.0475   0.0000  -0.0000  -0.0251  -0.0036   0.0049
 661 C_k :3d2+  -0.0044  -0.0000   0.1460  -0.0392   0.0000   0.0000   0.0000
 675 C_k :4f3+   0.0023  -0.0000   0.0081   0.0117  -0.0000   0.0000   0.0000
 676 C_k :4f3-  -0.0040   0.0000  -0.1003   0.0506  -0.0000  -0.0000   0.0000
 677 C_k :4f2-   0.0000  -0.0143   0.0000  -0.0000  -0.0157  -0.0131  -0.0065
 681 C_k :4f2+   0.0000  -0.0193   0.0000  -0.0000  -0.0008   0.0344  -0.0002
 682 C_k :4f3+   0.0131   0.0000   0.0506   0.0254   0.0000   0.0000  -0.0000
 684 C_l :1s    -0.0158   0.0000   0.1040   0.0173  -0.0000  -0.0000  -0.0000
 686 C_l :1s    -0.0043  -0.0000   0.3221  -0.1342   0.0000   0.0000  -0.0000
 687 C_l :1s     0.0177   0.0000  -0.0837   0.0256  -0.0000  -0.0000   0.0000
 688 C_l :1s    -0.0754  -0.0000  -0.0646  -0.0539  -0.0000  -0.0000   0.0000
 689 C_l :2px   -0.0108  -0.0000   0.1976   0.1603  -0.0000   0.0000  -0.0000
 690 C_l :2py   -0.0012  -0.0000  -0.2438  -0.0110  -0.0000  -0.0000   0.0000
 691 C_l :2pz   -0.0000  -0.1615  -0.0000   0.0000   0.2229  -0.0098   0.2921
 693 C_l :2py   -0.0011  -0.0000   0.0184   0.0012   0.0000  -0.0000   0.0000
 695 C_l :2px    0.0206   0.0000   0.1857  -0.0258   0.0000   0.0000  -0.0000
 696 C_l :2py    0.0010   0.0000   0.1353   0.0781   0.0000   0.0000   0.0000
 697 C_l :2pz    0.0000   0.0321   0.0000  -0.0000   0.0285   0.0029   0.0208
 698 C_l :2px   -0.0402   0.0000   0.2191  -0.2307  -0.0000   0.0000  -0.0000
[...]
      ----------------------------------------------------------------
         1    1.12306D-01  0.00D+00  1.12D-01  5.30D+01    0.00000D+00
         2    1.16442D-01  0.00D+00  1.16D-01  5.51D+01    2.01000D-02
         3    1.30741D-01  0.00D+00  1.31D-01  6.23D+01    4.02000D-02

 ** RSPCTL MICROITERATION NUMBER    7

       No.  Residual tot.,    conf., and orb.    Bnorm      Frequency 
      ----------------------------------------------------------------
         1    4.02248D-02  0.00D+00  4.02D-02  5.30D+01    0.00000D+00
         2    4.21765D-02  0.00D+00  4.22D-02  5.51D+01    2.01000D-02
         3    4.90222D-02  0.00D+00  4.90D-02  6.23D+01    4.02000D-02

 *** THE REQUESTED    3 SOLUTION VECTORS CONVERGED

 Convergence of RSP solution vectors, threshold = 1.00D-03
 ---------------------------------------------------------------
 (dimension of paired reduced space:   42)
 RSP solution vector no.    1; norm of residual   7.59D-04
 RSP solution vector no.    2; norm of residual   7.65D-04
 RSP solution vector no.    3; norm of residual   7.87D-04

 *** RSPCTL MICROITERATIONS CONVERGED

@ QRLRVE: SINGLET SOLUTION FOR SYMMETRY    1  ( A  )    LABEL   YDIPLEN     FREQUENCY   0.000000D+00

@ QRLRVE:  << XDIPLEN  ; YDIPLEN  >> (   0.00000):    -96.2446999541    

@ QRLRVE:  << YDIPLEN  ; YDIPLEN  >> (   0.00000):     768.344159522    

@ QRLRVE:  << ZDIPLEN  ; YDIPLEN  >> (   0.00000):   -7.823751077167E-14

@ QRLRVE: SINGLET SOLUTION FOR SYMMETRY    1  ( A  )    LABEL   YDIPLEN     FREQUENCY   0.201000D-01

@ QRLRVE:  << XDIPLEN  ; YDIPLEN  >> (   0.02010):    -99.0611764573    

@ QRLRVE:  << YDIPLEN  ; YDIPLEN  >> (   0.02010):     786.289438680    

@ QRLRVE:  << ZDIPLEN  ; YDIPLEN  >> (   0.02010):   -7.292789253056E-14

@ QRLRVE: SINGLET SOLUTION FOR SYMMETRY    1  ( A  )    LABEL   YDIPLEN     FREQUENCY   0.402000D-01

@ QRLRVE:  << XDIPLEN  ; YDIPLEN  >> (   0.04020):    -108.582704426    

@ QRLRVE:  << YDIPLEN  ; YDIPLEN  >> (   0.04020):     846.762062297    

@ QRLRVE:  << ZDIPLEN  ; YDIPLEN  >> (   0.04020):   -5.461867160205E-14


 QRLRVE -- linear response calculation for symmetry  1  ( A  )
 QRLRVE -- operator label : ZDIPLEN 
 QRLRVE -- operator spin  :   0
 QRLRVE -- frequencies :  0.000000  0.020100  0.040200



 ---  SOLVING SETS OF LINEAR EQUATIONS FOR LINEAR RESPONSE PROPERTIES ---

 Operator symmetry = 1  ( A  ); triplet =   F


 ** RSPCTL MICROITERATION NUMBER    1

       No.  Residual tot.,    conf., and orb.    Bnorm      Frequency 
      ----------------------------------------------------------------
         1    3.26909D+00  0.00D+00  3.27D+00  8.08D+00    0.00000D+00
         2    3.27210D+00  0.00D+00  3.27D+00  8.11D+00    2.01000D-02
         3    3.28122D+00  0.00D+00  3.28D+00  8.19D+00    4.02000D-02

 ** RSPCTL MICROITERATION NUMBER    2

       No.  Residual tot.,    conf., and orb.    Bnorm      Frequency 
      ----------------------------------------------------------------
         1    8.09652D-01  0.00D+00  8.10D-01  8.47D+00    0.00000D+00
         2    8.11860D-01  0.00D+00  8.12D-01  8.50D+00    2.01000D-02
         3    8.18572D-01  0.00D+00  8.19D-01  8.59D+00    4.02000D-02

 ** RSPCTL MICROITERATION NUMBER    3

       No.  Residual tot.,    conf., and orb.    Bnorm      Frequency 
      ----------------------------------------------------------------
         1    1.65371D-01  0.00D+00  1.65D-01  8.51D+00    0.00000D+00
         2    1.66551D-01  0.00D+00  1.67D-01  8.54D+00    2.01000D-02
         3    1.70162D-01  0.00D+00  1.70D-01  8.63D+00    4.02000D-02

 ** RSPCTL MICROITERATION NUMBER    4

       No.  Residual tot.,    conf., and orb.    Bnorm      Frequency 
      ----------------------------------------------------------------
         1    4.82885D-02  0.00D+00  4.83D-02  8.51D+00    0.00000D+00
         2    4.91372D-02  0.00D+00  4.91D-02  8.54D+00    2.01000D-02
         3    5.18104D-02  0.00D+00  5.18D-02  8.63D+00    4.02000D-02

 ** RSPCTL MICROITERATION NUMBER    5

       No.  Residual tot.,    conf., and orb.    Bnorm      Frequency 
      ----------------------------------------------------------------
         1    1.82056D-02  0.00D+00  1.82D-02  8.51D+00    0.00000D+00
         2    1.87972D-02  0.00D+00  1.88D-02  8.54D+00    2.01000D-02
         3    2.06774D-02  0.00D+00  2.07D-02  8.63D+00    4.02000D-02

 ** RSPCTL MICROITERATION NUMBER    6

       No.  Residual tot.,    conf., and orb.    Bnorm      Frequency 
      ----------------------------------------------------------------
         1    6.79450D-03  0.00D+00  6.79D-03  8.51D+00    0.00000D+00
         2    7.09292D-03  0.00D+00  7.09D-03  8.54D+00    2.01000D-02
         3    8.05546D-03  0.00D+00  8.06D-03  8.63D+00    4.02000D-02

 *** THE REQUESTED    3 SOLUTION VECTORS CONVERGED

 Convergence of RSP solution vectors, threshold = 1.00D-03
 ---------------------------------------------------------------
 (dimension of paired reduced space:   36)
 RSP solution vector no.    1; norm of residual   7.98D-04
 RSP solution vector no.    2; norm of residual   8.30D-04
 RSP solution vector no.    3; norm of residual   9.33D-04

 *** RSPCTL MICROITERATIONS CONVERGED

@ QRLRVE: SINGLET SOLUTION FOR SYMMETRY    1  ( A  )    LABEL   ZDIPLEN     FREQUENCY   0.000000D+00

@ QRLRVE:  << XDIPLEN  ; ZDIPLEN  >> (   0.00000):   -4.005223993090E-14

@ QRLRVE:  << YDIPLEN  ; ZDIPLEN  >> (   0.00000):   -8.805452141813E-14

@ QRLRVE:  << ZDIPLEN  ; ZDIPLEN  >> (   0.00000):     104.071615585    

@ QRLRVE: SINGLET SOLUTION FOR SYMMETRY    1  ( A  )    LABEL   ZDIPLEN     FREQUENCY   0.201000D-01

@ QRLRVE:  << XDIPLEN  ; ZDIPLEN  >> (   0.02010):   -4.162804624549E-14

@ QRLRVE:  << YDIPLEN  ; ZDIPLEN  >> (   0.02010):   -8.451069736388E-14

@ QRLRVE:  << ZDIPLEN  ; ZDIPLEN  >> (   0.02010):     104.219248344    

@ QRLRVE: SINGLET SOLUTION FOR SYMMETRY    1  ( A  )    LABEL   ZDIPLEN     FREQUENCY   0.402000D-01

@ QRLRVE:  << XDIPLEN  ; ZDIPLEN  >> (   0.04020):   -4.683249912783E-14

@ QRLRVE:  << YDIPLEN  ; ZDIPLEN  >> (   0.04020):   -7.190756818303E-14

@ QRLRVE:  << ZDIPLEN  ; ZDIPLEN  >> (   0.04020):     104.666814908    
 
 ======================================================================
 ---  L I N E A R   R E S P O N S E   F U N C T I O N S --- 
 ======================================================================

 The -<<A;B>>(omega_b) functions from vectors generated
 in a *QUADRA calculation of <<A;B,C>>(omega_b,omega_c)

 Note: the accuracy of off-diagonal elements will be linear
 in the convergence threshold THCLR =  1.00D-03


 Perturbation symmetry.     KSYMOP:           1
 Perturbation spin symmetry.TRPLET:           F
 Orbital variables.         KZWOPT:       75574
 Configuration variables.   KZCONF:           0
 Total number of variables. KZVAR :       75574

@ Singlet linear response function in a.u.

@ A operator, symmetry, frequency:   XDIPLEN    1 -0.000000
@ B operator, symmetry, frequency:   XDIPLEN    1  0.000000

@ Value of linear response -<<A;B>>(omega):     161.033639846508

@ Singlet linear response function in a.u.

@ A operator, symmetry, frequency:   YDIPLEN    1 -0.000000
@ B operator, symmetry, frequency:   XDIPLEN    1  0.000000

@ Value of linear response -<<A;B>>(omega):     -96.254983537624

@ Singlet linear response function in a.u.

@ A operator, symmetry, frequency:   ZDIPLEN    1 -0.000000
@ B operator, symmetry, frequency:   XDIPLEN    1  0.000000

@ Value of linear response -<<A;B>>(omega):      -0.000000000000

@ Singlet linear response function in a.u.

@ A operator, symmetry, frequency:   XDIPLEN    1 -0.020100
@ B operator, symmetry, frequency:   XDIPLEN    1  0.020100

@ Value of linear response -<<A;B>>(omega):     161.732465484937

@ Singlet linear response function in a.u.

@ A operator, symmetry, frequency:   YDIPLEN    1 -0.020100
@ B operator, symmetry, frequency:   XDIPLEN    1  0.020100

@ Value of linear response -<<A;B>>(omega):     -99.072297671959

@ Singlet linear response function in a.u.

@ A operator, symmetry, frequency:   ZDIPLEN    1 -0.020100
@ B operator, symmetry, frequency:   XDIPLEN    1  0.020100

@ Value of linear response -<<A;B>>(omega):      -0.000000000000

@ Singlet linear response function in a.u.

@ A operator, symmetry, frequency:   XDIPLEN    1 -0.000000
@ B operator, symmetry, frequency:   YDIPLEN    1  0.000000

@ Value of linear response -<<A;B>>(omega):     -96.244699954144

@ Singlet linear response function in a.u.

@ A operator, symmetry, frequency:   YDIPLEN    1 -0.000000
@ B operator, symmetry, frequency:   YDIPLEN    1  0.000000

@ Value of linear response -<<A;B>>(omega):     768.344159521739

@ Singlet linear response function in a.u.

@ A operator, symmetry, frequency:   ZDIPLEN    1 -0.000000
@ B operator, symmetry, frequency:   YDIPLEN    1  0.000000

@ Value of linear response -<<A;B>>(omega):      -0.000000000000

@ Singlet linear response function in a.u.

@ A operator, symmetry, frequency:   XDIPLEN    1 -0.020100
@ B operator, symmetry, frequency:   YDIPLEN    1  0.020100

@ Value of linear response -<<A;B>>(omega):     -99.061176457343

@ Singlet linear response function in a.u.

@ A operator, symmetry, frequency:   YDIPLEN    1 -0.020100
@ B operator, symmetry, frequency:   YDIPLEN    1  0.020100

@ Value of linear response -<<A;B>>(omega):     786.289438679604

@ Singlet linear response function in a.u.

@ A operator, symmetry, frequency:   ZDIPLEN    1 -0.020100
@ B operator, symmetry, frequency:   YDIPLEN    1  0.020100

@ Value of linear response -<<A;B>>(omega):      -0.000000000000

@ Singlet linear response function in a.u.

@ A operator, symmetry, frequency:   XDIPLEN    1 -0.000000
@ B operator, symmetry, frequency:   ZDIPLEN    1  0.000000

@ Value of linear response -<<A;B>>(omega):      -0.000000000000

@ Singlet linear response function in a.u.

@ A operator, symmetry, frequency:   YDIPLEN    1 -0.000000
@ B operator, symmetry, frequency:   ZDIPLEN    1  0.000000

@ Value of linear response -<<A;B>>(omega):      -0.000000000000

@ Singlet linear response function in a.u.

@ A operator, symmetry, frequency:   ZDIPLEN    1 -0.000000
@ B operator, symmetry, frequency:   ZDIPLEN    1  0.000000

@ Value of linear response -<<A;B>>(omega):     104.071615584979

@ Singlet linear response function in a.u.

@ A operator, symmetry, frequency:   XDIPLEN    1 -0.020100
@ B operator, symmetry, frequency:   ZDIPLEN    1  0.020100

@ Value of linear response -<<A;B>>(omega):      -0.000000000000

@ Singlet linear response function in a.u.

@ A operator, symmetry, frequency:   YDIPLEN    1 -0.020100
@ B operator, symmetry, frequency:   ZDIPLEN    1  0.020100

@ Value of linear response -<<A;B>>(omega):      -0.000000000000

@ Singlet linear response function in a.u.

@ A operator, symmetry, frequency:   ZDIPLEN    1 -0.020100
@ B operator, symmetry, frequency:   ZDIPLEN    1  0.020100

@ Value of linear response -<<A;B>>(omega):     104.219248343727


  Results from quadratic response calculation
 --------------------------------------------

@ B-freq = 0.000000  C-freq = 0.000000     beta(X;X,X) =   -504.92026505
@ B-freq = 0.000000  C-freq = 0.000000     beta(Y;X,X) =   2093.84187415
@ B-freq = 0.000000  C-freq = 0.000000     beta(Z;X,X) =     -0.00000000
@ B-freq = 0.020100  C-freq = 0.000000     beta(X;X,X) =   -527.87827446
@ B-freq = 0.020100  C-freq = 0.000000     beta(Y;X,X) =   2197.75058391
@ B-freq = 0.020100  C-freq = 0.000000     beta(Z;X,X) =     -0.00000000
@ B-freq = 0.000000  C-freq = 0.000000     beta(X;Y,X) = beta(Y,X,X)
@ B-freq = 0.000000  C-freq = 0.000000     beta(X;Y,X) =   2093.84202039
@ B-freq = 0.000000  C-freq = 0.000000     beta(Y;Y,X) =  -7149.86274471
@ B-freq = 0.000000  C-freq = 0.000000     beta(Z;Y,X) =     -0.00000000
@ B-freq = 0.020100  C-freq = 0.000000     beta(X;Y,X) =   2197.75073785
@ B-freq = 0.020100  C-freq = 0.000000     beta(Y;Y,X) =  -7589.89594236
@ B-freq = 0.020100  C-freq = 0.000000     beta(Z;Y,X) =     -0.00000000
@ B-freq = 0.000000  C-freq = 0.000000     beta(X;Z,X) = beta(Z,X,X)
@ B-freq = 0.000000  C-freq = 0.000000     beta(Y;Z,X) = beta(Z,Y,X)
@ B-freq = 0.000000  C-freq = 0.000000     beta(X;Z,X) =     -0.00000000
@ B-freq = 0.000000  C-freq = 0.000000     beta(Y;Z,X) =     -0.00000000
@ B-freq = 0.000000  C-freq = 0.000000     beta(Z;Z,X) =     13.61104581
@ B-freq = 0.020100  C-freq = 0.000000     beta(X;Z,X) =     -0.00000000
@ B-freq = 0.020100  C-freq = 0.000000     beta(Y;Z,X) =     -0.00000000
@ B-freq = 0.020100  C-freq = 0.000000     beta(Z;Z,X) =     13.77399374
@ B-freq = 0.000000  C-freq = 0.020100     beta(X;X,X) = beta(X,X,X)
@ B-freq = 0.000000  C-freq = 0.020100     beta(Y;X,X) = beta(Y,X,X)
@ B-freq = 0.000000  C-freq = 0.020100     beta(Z;X,X) = beta(Z,X,X)
@ B-freq = 0.020100  C-freq = 0.020100     beta(X;X,X) =   -579.35199666
@ B-freq = 0.020100  C-freq = 0.020100     beta(Y;X,X) =   2460.87192264
@ B-freq = 0.020100  C-freq = 0.020100     beta(Z;X,X) =     -0.00000000
@ B-freq = 0.000000  C-freq = 0.020100     beta(X;Y,X) =   2173.62026414
@ B-freq = 0.000000  C-freq = 0.020100     beta(Y;Y,X) =  -7479.99789921
@ B-freq = 0.000000  C-freq = 0.020100     beta(Z;Y,X) =     -0.00000000
@ B-freq = 0.020100  C-freq = 0.020100     beta(X;Y,X) =   2378.05944059
@ B-freq = 0.020100  C-freq = 0.020100     beta(Y;Y,X) =  -8473.86660520
@ B-freq = 0.020100  C-freq = 0.020100     beta(Z;Y,X) =     -0.00000000
@ B-freq = 0.000000  C-freq = 0.020100     beta(X;Z,X) =     -0.00000000
@ B-freq = 0.000000  C-freq = 0.020100     beta(Y;Z,X) =     -0.00000000
@ B-freq = 0.000000  C-freq = 0.020100     beta(Z;Z,X) =     13.79733117
@ B-freq = 0.020100  C-freq = 0.020100     beta(X;Z,X) =     -0.00000000
@ B-freq = 0.020100  C-freq = 0.020100     beta(Y;Z,X) =     -0.00000000
@ B-freq = 0.020100  C-freq = 0.020100     beta(Z;Z,X) =     14.13746772
@ B-freq = 0.000000  C-freq = 0.000000     beta(X;X,Y) = beta(Y,X,X)
@ B-freq = 0.000000  C-freq = 0.000000     beta(Y;X,Y) = beta(Y,Y,X)
@ B-freq = 0.000000  C-freq = 0.000000     beta(Z;X,Y) = beta(Z,Y,X)
@ B-freq = 0.020100  C-freq = 0.000000     beta(X;X,Y) = beta(X,Y,X)
@ B-freq = 0.020100  C-freq = 0.000000     beta(Y;X,Y) = beta(Y,Y,X)
@ B-freq = 0.020100  C-freq = 0.000000     beta(Z;X,Y) = beta(Z,Y,X)
@ B-freq = 0.000000  C-freq = 0.000000     beta(X;Y,Y) = beta(Y,Y,X)
@ B-freq = 0.000000  C-freq = 0.000000     beta(X;Y,Y) =  -7149.86375890
@ B-freq = 0.000000  C-freq = 0.000000     beta(Y;Y,Y) =  18788.07671441
@ B-freq = 0.000000  C-freq = 0.000000     beta(Z;Y,Y) =      0.00000000
@ B-freq = 0.020100  C-freq = 0.000000     beta(X;Y,Y) =  -7479.99896804
@ B-freq = 0.020100  C-freq = 0.000000     beta(Y;Y,Y) =  19982.34456181
@ B-freq = 0.020100  C-freq = 0.000000     beta(Z;Y,Y) =      0.00000000
@ B-freq = 0.000000  C-freq = 0.000000     beta(X;Z,Y) = beta(Z,Y,X)
@ B-freq = 0.000000  C-freq = 0.000000     beta(Y;Z,Y) = beta(Z,Y,Y)
@ B-freq = 0.000000  C-freq = 0.000000     beta(X;Z,Y) =     -0.00000000
@ B-freq = 0.000000  C-freq = 0.000000     beta(Y;Z,Y) =      0.00000000
@ B-freq = 0.000000  C-freq = 0.000000     beta(Z;Z,Y) =    -41.66291741
@ B-freq = 0.020100  C-freq = 0.000000     beta(X;Z,Y) =     -0.00000000
@ B-freq = 0.020100  C-freq = 0.000000     beta(Y;Z,Y) =      0.00000000
@ B-freq = 0.020100  C-freq = 0.000000     beta(Z;Z,Y) =    -42.42679273
@ B-freq = 0.000000  C-freq = 0.020100     beta(X;X,Y) = beta(X,Y,X)
@ B-freq = 0.000000  C-freq = 0.020100     beta(Y;X,Y) = beta(Y,Y,X)
@ B-freq = 0.000000  C-freq = 0.020100     beta(Z;X,Y) = beta(Z,Y,X)
@ B-freq = 0.020100  C-freq = 0.020100     beta(X;X,Y) = beta(X,Y,X)
@ B-freq = 0.020100  C-freq = 0.020100     beta(Y;X,Y) = beta(Y,Y,X)
@ B-freq = 0.020100  C-freq = 0.020100     beta(Z;X,Y) = beta(Z,Y,X)
@ B-freq = 0.000000  C-freq = 0.020100     beta(X;Y,Y) = beta(X,Y,Y)
@ B-freq = 0.000000  C-freq = 0.020100     beta(Y;Y,Y) = beta(Y,Y,Y)
@ B-freq = 0.000000  C-freq = 0.020100     beta(Z;Y,Y) = beta(Z,Y,Y)
@ B-freq = 0.020100  C-freq = 0.020100     beta(X;Y,Y) =  -8097.99818010
@ B-freq = 0.020100  C-freq = 0.020100     beta(Y;Y,Y) =  22722.47568443
@ B-freq = 0.020100  C-freq = 0.020100     beta(Z;Y,Y) =      0.00000000
@ B-freq = 0.000000  C-freq = 0.020100     beta(X;Z,Y) =     -0.00000000
@ B-freq = 0.000000  C-freq = 0.020100     beta(Y;Z,Y) =      0.00000000
@ B-freq = 0.000000  C-freq = 0.020100     beta(Z;Z,Y) =    -42.65511541
@ B-freq = 0.020100  C-freq = 0.020100     beta(X;Z,Y) =     -0.00000000
@ B-freq = 0.020100  C-freq = 0.020100     beta(Y;Z,Y) =      0.00000000
@ B-freq = 0.020100  C-freq = 0.020100     beta(Z;Z,Y) =    -44.26682734
@ B-freq = 0.000000  C-freq = 0.000000     beta(X;X,Z) = beta(Z,X,X)
@ B-freq = 0.000000  C-freq = 0.000000     beta(Y;X,Z) = beta(Z,Y,X)
@ B-freq = 0.000000  C-freq = 0.000000     beta(Z;X,Z) = beta(Z,Z,X)
@ B-freq = 0.020100  C-freq = 0.000000     beta(X;X,Z) = beta(X,Z,X)
@ B-freq = 0.020100  C-freq = 0.000000     beta(Y;X,Z) = beta(Y,Z,X)
@ B-freq = 0.020100  C-freq = 0.000000     beta(Z;X,Z) = beta(Z,Z,X)
@ B-freq = 0.000000  C-freq = 0.000000     beta(X;Y,Z) = beta(Z,Y,X)
@ B-freq = 0.000000  C-freq = 0.000000     beta(Y;Y,Z) = beta(Z,Y,Y)
@ B-freq = 0.000000  C-freq = 0.000000     beta(Z;Y,Z) = beta(Z,Z,Y)
@ B-freq = 0.020100  C-freq = 0.000000     beta(X;Y,Z) = beta(X,Z,Y)
@ B-freq = 0.020100  C-freq = 0.000000     beta(Y;Y,Z) = beta(Y,Z,Y)
@ B-freq = 0.020100  C-freq = 0.000000     beta(Z;Y,Z) = beta(Z,Z,Y)
@ B-freq = 0.000000  C-freq = 0.000000     beta(X;Z,Z) = beta(Z,Z,X)
@ B-freq = 0.000000  C-freq = 0.000000     beta(Y;Z,Z) = beta(Z,Z,Y)
@ B-freq = 0.000000  C-freq = 0.000000     beta(X;Z,Z) =     13.61104143
@ B-freq = 0.000000  C-freq = 0.000000     beta(Y;Z,Z) =    -41.66289963
@ B-freq = 0.000000  C-freq = 0.000000     beta(Z;Z,Z) =      0.00000000
@ B-freq = 0.020100  C-freq = 0.000000     beta(X;Z,Z) =     13.79732662
@ B-freq = 0.020100  C-freq = 0.000000     beta(Y;Z,Z) =    -42.65509673
@ B-freq = 0.020100  C-freq = 0.000000     beta(Z;Z,Z) =      0.00000000
@ B-freq = 0.000000  C-freq = 0.020100     beta(X;X,Z) = beta(X,Z,X)
@ B-freq = 0.000000  C-freq = 0.020100     beta(Y;X,Z) = beta(Y,Z,X)
@ B-freq = 0.000000  C-freq = 0.020100     beta(Z;X,Z) = beta(Z,Z,X)
@ B-freq = 0.020100  C-freq = 0.020100     beta(X;X,Z) = beta(X,Z,X)
@ B-freq = 0.020100  C-freq = 0.020100     beta(Y;X,Z) = beta(Y,Z,X)
@ B-freq = 0.020100  C-freq = 0.020100     beta(Z;X,Z) = beta(Z,Z,X)
@ B-freq = 0.000000  C-freq = 0.020100     beta(X;Y,Z) = beta(X,Z,Y)
@ B-freq = 0.000000  C-freq = 0.020100     beta(Y;Y,Z) = beta(Y,Z,Y)
@ B-freq = 0.000000  C-freq = 0.020100     beta(Z;Y,Z) = beta(Z,Z,Y)
@ B-freq = 0.020100  C-freq = 0.020100     beta(X;Y,Z) = beta(X,Z,Y)
@ B-freq = 0.020100  C-freq = 0.020100     beta(Y;Y,Z) = beta(Y,Z,Y)
@ B-freq = 0.020100  C-freq = 0.020100     beta(Z;Y,Z) = beta(Z,Z,Y)
@ B-freq = 0.000000  C-freq = 0.020100     beta(X;Z,Z) = beta(X,Z,Z)
@ B-freq = 0.000000  C-freq = 0.020100     beta(Y;Z,Z) = beta(Y,Z,Z)
@ B-freq = 0.000000  C-freq = 0.020100     beta(Z;Z,Z) = beta(Z,Z,Z)
@ B-freq = 0.020100  C-freq = 0.020100     beta(X;Z,Z) =     14.22808535
@ B-freq = 0.020100  C-freq = 0.020100     beta(Y;Z,Z) =    -45.09221311
@ B-freq = 0.020100  C-freq = 0.020100     beta(Z;Z,Z) =      0.00000000

  Total CPU  time used in RESPONSE:   1 hour   1 minute  55 seconds
  Total wall time used in RESPONSE:   1 hour   2 minutes 14 seconds


                   .-------------------------------------------.
                   | End of Dynamic Property Section (RESPONS) |
                   `-------------------------------------------'

  Total CPU  time used in DALTON:   1 hour  20 minutes 44 seconds
  Total wall time used in DALTON:   1 hour  21 minutes 10 seconds

 
     Date and time (Linux)  : Tue May 27 16:09:21 2025
     Host name              : xm023                                   
