

     ************************************************************************
     *************** Dalton - An Electronic Structure Program ***************
     ************************************************************************

    This is output from DALTON release Dalton2020.0 (2020)
         ( Web site: http://daltonprogram.org )

   ----------------------------------------------------------------------------

    NOTE:
     
    Dalton is an experimental code for the evaluation of molecular
    properties using (MC)SCF, DFT, CI, and CC wave functions.
    The authors accept no responsibility for the performance of
    the code or for the correctness of the results.
     
    The code (in whole or part) is provided under a licence and
    is not to be reproduced for further distribution without
    the written permission of the authors or their representatives.
     
    See the home page "http://daltonprogram.org" for further information.
     
    If results obtained with this code are published,
    the appropriate citations would be both of:
     
       K. Aidas, C. Angeli, K. L. Bak, V. Bakken, R. Bast,
       L. Boman, O. Christiansen, R. Cimiraglia, S. Coriani,
       P. Dahle, E. K. Dalskov, U. Ekstroem,
       T. Enevoldsen, J. J. Eriksen, P. Ettenhuber, B. Fernandez,
       L. Ferrighi, H. Fliegl, L. Frediani, K. Hald, A. Halkier,
       C. Haettig, H. Heiberg, T. Helgaker, A. C. Hennum,
       H. Hettema, E. Hjertenaes, S. Hoest, I.-M. Hoeyvik,
       M. F. Iozzi, B. Jansik, H. J. Aa. Jensen, D. Jonsson,
       P. Joergensen, J. Kauczor, S. Kirpekar,
       T. Kjaergaard, W. Klopper, S. Knecht, R. Kobayashi, H. Koch,
       J. Kongsted, A. Krapp, K. Kristensen, A. Ligabue,
       O. B. Lutnaes, J. I. Melo, K. V. Mikkelsen, R. H. Myhre,
       C. Neiss, C. B. Nielsen, P. Norman, J. Olsen,
       J. M. H. Olsen, A. Osted, M. J. Packer, F. Pawlowski,
       T. B. Pedersen, P. F. Provasi, S. Reine, Z. Rinkevicius,
       T. A. Ruden, K. Ruud, V. Rybkin, P. Salek, C. C. M. Samson,
       A. Sanchez de Meras, T. Saue, S. P. A. Sauer,
       B. Schimmelpfennig, K. Sneskov, A. H. Steindal,
       K. O. Sylvester-Hvid, P. R. Taylor, A. M. Teale,
       E. I. Tellgren, D. P. Tew, A. J. Thorvaldsen, L. Thoegersen,
       O. Vahtras, M. A. Watson, D. J. D. Wilson, M. Ziolkowski
       and H. Agren,
       "The Dalton quantum chemistry program system",
       WIREs Comput. Mol. Sci. 2014, 4:269–284 (doi: 10.1002/wcms.1172)
     
    and
     
       Dalton, a molecular electronic structure program,
       Release Dalton2020.0 (2020), see http://daltonprogram.org
   ----------------------------------------------------------------------------

    Authors in alphabetical order (Major contribution(s) in parenthesis):

  Kestutis Aidas,           Vilnius University,           Lithuania   (QM/MM)
  Celestino Angeli,         University of Ferrara,        Italy       (NEVPT2)
  Keld L. Bak,              UNI-C,                        Denmark     (AOSOPPA, non-adiabatic coupling, magnetic properties)
  Vebjoern Bakken,          University of Oslo,           Norway      (DALTON; geometry optimizer, symmetry detection)
  Radovan Bast,             UiT The Arctic U. of Norway,  Norway      (DALTON installation and execution frameworks)
  Pablo Baudin,             University of Valencia,       Spain       (Cholesky excitation energies)
  Linus Boman,              NTNU,                         Norway      (Cholesky decomposition and subsystems)
  Bruno N. Cabral Tenorio,  Technical Univ. of Denmark,   Denmark     (Lanczos-based CC methods)
  Ove Christiansen,         Aarhus University,            Denmark     (CC module)
  Renzo Cimiraglia,         University of Ferrara,        Italy       (NEVPT2)
  Sonia Coriani,            Technical Univ. of Denmark,   Denmark     (CC and RESPONS modules)
  Janusz Cukras,            University of Warsaw,         Poland      (MChD in RESPONS)
  Paal Dahle,               University of Oslo,           Norway      (Parallelization)
  Erik K. Dalskov,          UNI-C,                        Denmark     (SOPPA)
  Thomas Enevoldsen,        Univ. of Southern Denmark,    Denmark     (SOPPA)
  Janus J. Eriksen,         Aarhus University,            Denmark     (Polarizable embedding, TDA)
  Rasmus Faber,             Technical Univ. of Denmark,   Denmark     (Vib.avg. NMR w. SOPPA, parallel AO-SOPPA, CVS-CC and EOMCC)
  Tobias Fahleson,          KTH Stockholm,                Sweden      (Damped cubic response)
  Berta Fernandez,          U. of Santiago de Compostela, Spain       (Doublet spin, ESR in RESPONS)
  Lara Ferrighi,            Aarhus University,            Denmark     (PCM Cubic response)
  Heike Fliegl,             University of Oslo,           Norway      (CCSD(R12))
  Luca Frediani,            UiT The Arctic U. of Norway,  Norway      (PCM)
  Emmanuel Fromager,        Univ. Strasbourg,             France      (MC-srDFT)
  Bin Gao,                  UiT The Arctic U. of Norway,  Norway      (Gen1Int library)
  Andre S. P. Gomes,        CNRS/Universite de Lille,     France      (Frozen density embedding)
  Christof Haettig,         Ruhr-University Bochum,       Germany     (CC module)
  Kasper Hald,              Aarhus University,            Denmark     (CC module)
  Asger Halkier,            Aarhus University,            Denmark     (CC module)
  Frederik Beyer Hansen,    University of Copenhagen,     Denmark     (Parallel AO-SOPPA)
  Erik D. Hedegaard,        Univ. of Southern Denmark,    Denmark     (Polarizable embedding, QM/MM, and MC-srDFT)
  Hanne Heiberg,            University of Oslo,           Norway      (Geometry analysis, selected one-electron integrals)
  Trygve Helgaker,          University of Oslo,           Norway      (DALTON; ABACUS, ERI, DFT modules, London, and much more)
  Alf Christian Hennum,     University of Oslo,           Norway      (Parity violation)
  Hinne Hettema,            University of Auckland,       New Zealand (Quadratic response in RESPONS; SIRIUS supersymmetry)
  Eirik Hjertenaes,         NTNU,                         Norway      (Cholesky decomposition)
  Pi A. B. Haase,           University of Copenhagen,     Denmark     (Triplet AO-SOPPA)
  Maria Francesca Iozzi,    University of Oslo,           Norway      (RPA)
  Christoph Jacob           TU Braunschweig               Germany     (Frozen density embedding)
  Brano Jansik              Technical Univ. of Ostrava    Czech Rep.  (DFT cubic response)
  Hans Joergen Aa. Jensen,  Univ. of Southern Denmark,    Denmark     (DALTON; SIRIUS, RESPONS, ABACUS, MC-srDFT, and much more)
  Dan Jonsson,              UiT The Arctic U. of Norway,  Norway      (Cubic response in RESPONS module)
  Poul Joergensen,          Aarhus University,            Denmark     (RESPONS, ABACUS, and CC modules)
  Maciej Kaminski,          University of Warsaw,         Poland      (CPPh in RESPONS)
  Joanna Kauczor,           Linkoeping University,        Sweden      (Complex polarization propagator (CPP) module)
  Sheela Kirpekar,          Univ. of Southern Denmark,    Denmark     (Mass-velocity & Darwin integrals)
  Erik Kjellgren,           Univ. of Southern Denmark,    Denmark     (MC-srDFT)
  Wim Klopper,              KIT Karlsruhe,                Germany     (R12 code in CC, SIRIUS, and ABACUS modules)
  Stefan Knecht,            ETH Zurich,                   Switzerland (Parallel CI and MCSCF, MC-srDFT)
  Rika Kobayashi,           Australian National Univ.,    Australia   (DIIS in CC, London in MCSCF)
  Henrik Koch,              NTNU,                         Norway      (CC module, Cholesky decomposition)
  Jacob Kongsted,           Univ. of Southern Denmark,    Denmark     (Polarizable embedding, polarizable density embedding, QM/MM)
  Andrea Ligabue,           University of Modena,         Italy       (CTOCD, AOSOPPA)
  Nanna H. List             Univ. of Southern Denmark,    Denmark     (Polarizable embedding)
  Ola B. Lutnaes,           University of Oslo,           Norway      (DFT Hessian)
  Juan I. Melo,             University of Buenos Aires,   Argentina   (LRESC, Relativistic Effects on NMR Shieldings)
  Kurt V. Mikkelsen,        University of Copenhagen,     Denmark     (MC-SCRF and QM/MM)
  Rolf H. Myhre,            NTNU,                         Norway      (Subsystems and CC3)
  Christian Neiss,          Univ. Erlangen-Nuernberg,     Germany     (CCSD(R12))
  Christian B. Nielsen,     University of Copenhagen,     Denmark     (QM/MM)
  Patrick Norman,           KTH Stockholm,                Sweden      (Cubic response and complex frequency response in RESPONS)
  Jeppe Olsen,              Aarhus University,            Denmark     (SIRIUS CI/density modules)
  Jogvan Magnus H. Olsen,   Aarhus University,            Denmark     (Polarizable embedding and polarizable density embedding)
  Anders Osted,             Copenhagen University,        Denmark     (QM/MM)
  Martin J. Packer,         University of Sheffield,      UK          (SOPPA)
  Filip Pawlowski,          Kazimierz Wielki University,  Poland      (CC3)
  Morten N. Pedersen,       Univ. of Southern Denmark,    Denmark     (Polarizable embedding)
  Thomas B. Pedersen,       University of Oslo,           Norway      (Cholesky decomposition)
  Patricio F. Provasi,      University of Northeastern,   Argentina   (Analysis of coupling constants in localized orbitals)
  Peter Reinholdt,          Univ. of Southern Denmark,    Denmark     (Polarizable embedding and polarizable density embedding)
  Zilvinas Rinkevicius,     KTH Stockholm,                Sweden      (open-shell DFT, ESR)
  Elias Rudberg,            KTH Stockholm,                Sweden      (DFT grid and basis info)
  Torgeir A. Ruden,         University of Oslo,           Norway      (Numerical derivatives in ABACUS)
  Kenneth Ruud,             UiT The Arctic U. of Norway,  Norway      (DALTON; ABACUS magnetic properties and much more)
  Pawel Salek,              KTH Stockholm,                Sweden      (DALTON; DFT code)
  Claire C. M. Samson       University of Karlsruhe       Germany     (Boys localization, r12 integrals in ERI)
  Alfredo Sanchez de Meras, University of Valencia,       Spain       (CC module, Cholesky decomposition)
  Trond Saue,               Paul Sabatier University,     France      (direct Fock matrix construction)
  Stephan P. A. Sauer,      University of Copenhagen,     Denmark     (SOPPA(CCSD), SOPPA prop., AOSOPPA, vibrational g-factors)
  Bernd Schimmelpfennig,    Forschungszentrum Karlsruhe,  Germany     (AMFI module)
  Anna K. Schnack-Petersen, University of Copenhagen,     Denmark     (RPA(D) and HRPA(D) properties in AOSOPPA)
  Kristian Sneskov,         Aarhus University,            Denmark     (Polarizable embedding, QM/MM)
  Arnfinn H. Steindal,      UiT The Arctic U. of Norway,  Norway      (parallel QM/MM, polarizable embedding)
  Casper Steinmann,         Aalborg University,           Denmark     (QFIT, polarizable embedding)
  K. O. Sylvester-Hvid,     University of Copenhagen,     Denmark     (MC-SCRF)
  Peter R. Taylor,          VLSCI/Univ. of Melbourne,     Australia   (Symmetry handling ABACUS, integral transformation)
  Andrew M. Teale,          University of Nottingham,     England     (DFT-AC, DFT-D)
  David P. Tew,             University of Bristol,        England     (CCSD(R12))
  Julien Toulouse,          Sorbonne Univ.,               France      (MC-srDFT)
  Olav Vahtras,             KTH Stockholm,                Sweden      (Triplet response, spin-orbit, ESR, TDDFT, open-shell DFT)
  Lucas Visscher,           Vrije Universiteit Amsterdam, Netherlands (Frozen density embedding)
  David J. Wilson,          La Trobe University,          Australia   (DFT Hessian and DFT magnetizabilities)
  Hans Agren,               KTH Stockholm,                Sweden      (SIRIUS module, RESPONS, MC-SCRF solvation)
 --------------------------------------------------------------------------------

     Date and time (Linux)  : Fri May 23 17:12:14 2025
     Host name              : xm045                                   

 * Work memory size             :  1310720000 =  9.766 gigabytes.

 * Directories for basis set searches:
   1) /gpfs/projects/rjh/adrian/summer2025/beta_projects/raw_data/NLO/dalton/hf/n6/dipole
   2) /gpfs/projects/rjh/adrian/dalton/build/basis


Compilation information
-----------------------

 Who compiled             | ahurtado
 Host                     | milan2
 System                   | Linux-5.14.0-427.42.1.el9_4.x86_64
 CMake generator          | Unix Makefiles
 Processor                | x86_64
 64-bit integers          | OFF
 MPI                      | ON
 Fortran compiler         | /gpfs/software/openmpi/milan/gcc13.2/4.1.6/bin/mpi
                          | f90
 Fortran compiler version | GNU Fortran (GCC) 13.2.0
 C compiler               | /gpfs/software/openmpi/milan/gcc13.2/4.1.6/bin/mpi
                          | cc
 C compiler version       | gcc (GCC) 13.2.0
 C++ compiler             | /gpfs/software/openmpi/milan/gcc13.2/4.1.6/bin/mpi
                          | cxx
 C++ compiler version     | unknown
 BLAS                     | /gpfs/software/intel/oneAPI/2024_2/mkl/2024.2/lib/
                          | intel64/libmkl_gf_lp64.so;/gpfs/software/intel/one
                          | API/2024_2/mkl/2024.2/lib/intel64/libmkl_sequentia
                          | l.so;/gpfs/software/intel/oneAPI/2024_2/mkl/2024.2
                          | /lib/intel64/libmkl_core.so;/usr/lib64/libpthread.
                          | a;/usr/lib64/libm.so
 LAPACK                   | /gpfs/software/intel/oneAPI/2024_2/mkl/2024.2/lib/
                          | intel64/libmkl_lapack95_lp64.a;/gpfs/software/inte
                          | l/oneAPI/2024_2/mkl/2024.2/lib/intel64/libmkl_gf_l
                          | p64.so
 Static linking           | OFF
 Last Git revision        | 66052b3af5ea7225e31178bf9a8b031913c72190
 Git branch               | (HEAD detached at Dalton2020.0)
 Configuration time       | 2025-04-10 16:02:31.569498

 * MPI parallel run using 96 processes.


   Content of the .dal input file
 ----------------------------------

**DALTON INPUT
.RUN RESPONSE
.DIRECT
**WAVE FUNCTIONS
.HF
**PROPERTIES
**RESPONSE
*QUADRA
.DIPLEN
.FREQUENCIES
2
0.0 0.0201
**END OF DALTON INPUT


   Content of the .mol file
 ----------------------------

BASIS
aug-cc-pVQZ
blah
blah
Atomtype=4 Angstrom Charge=0 Nosymmetry
Charge=6 Atoms=12
C_a -1.5409340013725623 7.648444002169006 0.0
C_b -2.0062739986099687 6.359974997481831 0.0
C_c -1.117924000488792 5.226000999275696 0.0
C_d -1.512054001638856 3.910470999182316 0.0
C_e -0.5863380016146826 2.807702999139388 0.0
C_f -0.9491559998226989 1.4820489976141258 0.0
C_g 0.0 0.39966299868824806 0.0
C_h -0.3396019991227674 -0.9313269982832101 0.0
C_i 0.6318300011387791 -1.9960939996456535 0.0
C_j 0.31624100019002277 -3.3298059995204445 0.0
C_k 1.3240629984907504 -4.366341999955663 0.0
C_l 1.034302999608722 -5.688294999570765 0.0
Charge=7 Atoms=2
N_a -2.3045209998062157 8.782894000567909 0.0
N_b 2.0916910004841918 -6.691574000934346 0.0
Charge=8 Atoms=2
O_a 3.267613998035823 -6.319843002173978 0.0
O_b 1.710391001350492 -7.868637999804081 0.0
Charge=1 Atoms=14
H_a -0.4588089979387591 7.830007999923906 0.0
H_b -3.089380001340456 6.1770070026268975 0.0
H_c -0.037261997414011726 5.437900001255672 0.0
H_d -2.586386997648074 3.6768810021698886 0.0
H_e 0.4870809995162662 3.0520889997235274 0.0
H_f -2.018261000162647 1.2250459994244614 0.0
H_g 1.067967999601558 0.6655219997529035 0.0
H_h -1.4035229995867406 -1.2083000013807854 0.0
H_i 1.6943540002254438 -1.7107379987228446 0.0
H_j -0.7402810021801856 -3.6304650010264696 0.0
H_k 2.3822630006289045 -4.077865001804448 0.0
H_l 0.03541099903235335 -6.128434001087978 0.0
H_m -3.31398899852896 8.728602000993027 0.0
H_n -1.8783430001741876 9.696697999325472 0.0


       *******************************************************************
       *********** Output from DALTON general input processing ***********
       *******************************************************************

 --------------------------------------------------------------------------------
   Overall default print level:    0
   Print level for DALTON.STAT:    1

    Parallel calculation using MPI
    AO-direct calculation (in sections where implemented)
    HERMIT 1- and 2-electron integral sections will be executed
    "Old" integral transformation used (limited to max 255 basis functions)
    Wave function sections will be executed (SIRIUS module)
    Dynamic molecular response properties section will be executed (RESPONSE module)
 --------------------------------------------------------------------------------


   ****************************************************************************
   *************** Output of molecule and basis set information ***************
   ****************************************************************************


    The two title cards from your ".mol" input:
    ------------------------------------------------------------------------
 1: blah                                                                    
 2: blah                                                                    
    ------------------------------------------------------------------------

  Coordinates are entered in Angstrom and converted to atomic units.
          - Conversion factor : 1 bohr = 0.52917721 A

  Atomic type no.    1
  --------------------
  Nuclear charge:   6.00000
  Number of symmetry independent centers:   12
  Number of basis sets to read;    2
  Basis set file used for this atomic type with Z =   6 :
     "/gpfs/projects/rjh/adrian/dalton/build/basis/aug-cc-pVQZ"

  Atomic type no.    2
  --------------------
  Nuclear charge:   7.00000
  Number of symmetry independent centers:    2
  Number of basis sets to read;    2
  Basis set file used for this atomic type with Z =   7 :
     "/gpfs/projects/rjh/adrian/dalton/build/basis/aug-cc-pVQZ"

  Atomic type no.    3
  --------------------
  Nuclear charge:   8.00000
  Number of symmetry independent centers:    2
  Number of basis sets to read;    2
  Basis set file used for this atomic type with Z =   8 :
     "/gpfs/projects/rjh/adrian/dalton/build/basis/aug-cc-pVQZ"

  Atomic type no.    4
  --------------------
  Nuclear charge:   1.00000
  Number of symmetry independent centers:   14
  Number of basis sets to read;    2
  Basis set file used for this atomic type with Z =   1 :
     "/gpfs/projects/rjh/adrian/dalton/build/basis/aug-cc-pVQZ"


                         SYMGRP: Point group information
                         -------------------------------

@    Point group: C1 


                                 Isotopic Masses
                                 ---------------

                           C_a        12.000000
                           C_b        12.000000
                           C_c        12.000000
                           C_d        12.000000
                           C_e        12.000000
                           C_f        12.000000
                           C_g        12.000000
                           C_h        12.000000
                           C_i        12.000000
                           C_j        12.000000
                           C_k        12.000000
                           C_l        12.000000
                           N_a        14.003074
                           N_b        14.003074
                           O_a        15.994915
                           O_b        15.994915
                           H_a         1.007825
                           H_b         1.007825
                           H_c         1.007825
                           H_d         1.007825
                           H_e         1.007825
                           H_f         1.007825
                           H_g         1.007825
                           H_h         1.007825
                           H_i         1.007825
                           H_j         1.007825
                           H_k         1.007825
                           H_l         1.007825
                           H_m         1.007825
                           H_n         1.007825

                       Total mass:   218.105528 amu
                       Natural abundance:  86.325 %

 Center-of-mass coordinates (a.u.):    0.084529   -0.254926    0.000000
 Center-of-mass coordinates (Angs):    0.044731   -0.134901    0.000000


  Atoms and basis sets
  --------------------

  Number of atom types :    4
  Total number of atoms:   30

  Basis set used is "aug-cc-pVQZ" from the basis set library.

  label    atoms   charge   prim   cont     basis
  ----------------------------------------------------------------------
  C_         12    6.0000    93    80      [13s7p4d3f2g|6s5p4d3f2g]                           
  N_          2    7.0000    93    80      [13s7p4d3f2g|6s5p4d3f2g]                           
  O_          2    8.0000    93    80      [13s7p4d3f2g|6s5p4d3f2g]                           
  H_         14    1.0000    48    46      [7s4p3d2f|5s4p3d2f]                                
  ----------------------------------------------------------------------
  total:     30  116.0000  2160  1924
  ----------------------------------------------------------------------
  Spherical harmonic basis used.

  Threshold for neglecting AO integrals:  1.00D-12

  Max    interatomic separation is   17.9282 Angstrom (   33.8794 Bohr)
  between atoms   30 and   16, "H_n   " and "O_b   ".

  Min HX interatomic separation is    1.0083 Angstrom (    1.9054 Bohr)

  Min YX interatomic separation is    1.2333 Angstrom (    2.3306 Bohr)


  Bond distances (Angstrom):
  --------------------------

                  atom 1     atom 2       distance
                  ------     ------       --------
  bond distance:  C_b        C_a          1.369925
  bond distance:  C_c        C_b          1.440508
  bond distance:  C_d        C_c          1.373302
  bond distance:  C_e        C_d          1.439808
  bond distance:  C_f        C_e          1.374407
  bond distance:  C_g        C_f          1.439603
  bond distance:  C_h        C_g          1.373632
  bond distance:  C_i        C_h          1.441322
  bond distance:  C_j        C_i          1.370542
  bond distance:  C_k        C_j          1.445722
  bond distance:  C_l        C_k          1.353337
  bond distance:  N_a        C_a          1.367495
  bond distance:  N_b        C_l          1.457614
  bond distance:  O_a        N_b          1.233280
  bond distance:  O_b        N_b          1.237283
  bond distance:  H_a        C_a          1.097251
  bond distance:  H_b        C_b          1.098452
  bond distance:  H_c        C_c          1.101241
  bond distance:  H_d        C_d          1.099434
  bond distance:  H_e        C_e          1.100887
  bond distance:  H_f        C_f          1.099562
  bond distance:  H_g        C_g          1.100562
  bond distance:  H_h        C_h          1.099383
  bond distance:  H_i        C_i          1.100175
  bond distance:  H_j        C_j          1.098469
  bond distance:  H_k        C_k          1.096816
  bond distance:  H_l        C_l          1.091562
  bond distance:  H_m        N_a          1.010927
  bond distance:  H_n        N_a          1.008298


  Bond angles (degrees):
  ----------------------

                  atom 1     atom 2     atom 3         angle
                  ------     ------     ------         -----
  bond angle:     C_b        C_a        N_a          126.198
  bond angle:     C_b        C_a        H_a          119.382
  bond angle:     N_a        C_a        H_a          114.419
  bond angle:     C_a        C_b        C_c          122.067
  bond angle:     C_a        C_b        H_b          119.446
  bond angle:     C_c        C_b        H_b          118.487
  bond angle:     C_b        C_c        C_d          125.247
  bond angle:     C_b        C_c        H_c          116.981
  bond angle:     C_d        C_c        H_c          117.772
  bond angle:     C_c        C_d        C_e          123.310
  bond angle:     C_c        C_d        H_d          118.945
  bond angle:     C_e        C_d        H_d          117.745
  bond angle:     C_d        C_e        C_f          124.682
  bond angle:     C_d        C_e        H_e          117.186
  bond angle:     C_f        C_e        H_e          118.132
  bond angle:     C_e        C_f        C_g          123.446
  bond angle:     C_e        C_f        H_f          118.823
  bond angle:     C_g        C_f        H_f          117.731
  bond angle:     C_f        C_g        C_h          124.439
  bond angle:     C_f        C_g        H_g          117.269
  bond angle:     C_h        C_g        H_g          118.293
  bond angle:     C_g        C_h        C_i          123.311
  bond angle:     C_g        C_h        H_h          118.906
  bond angle:     C_i        C_h        H_h          117.783
  bond angle:     C_h        C_i        C_j          124.312
  bond angle:     C_h        C_i        H_i          117.343
  bond angle:     C_j        C_i        H_i          118.346
  bond angle:     C_i        C_j        C_k          122.492
  bond angle:     C_i        C_j        H_j          119.198
  bond angle:     C_k        C_j        H_j          118.310
  bond angle:     C_j        C_k        C_l          123.442
  bond angle:     C_j        C_k        H_k          118.946
  bond angle:     C_l        C_k        H_k          117.612
  bond angle:     C_k        C_l        N_b          121.133
  bond angle:     C_k        C_l        H_l          126.143
  bond angle:     N_b        C_l        H_l          112.725
  bond angle:     C_a        N_a        H_m          120.866
  bond angle:     C_a        N_a        H_n          121.053
  bond angle:     H_m        N_a        H_n          118.082
  bond angle:     C_l        N_b        O_a          118.961
  bond angle:     C_l        N_b        O_b          115.547
  bond angle:     O_a        N_b        O_b          125.492




 Principal moments of inertia (u*A**2) and principal axes
 --------------------------------------------------------

   IA      88.457596         -0.268559    0.963263    0.000000
   IB    6848.677198          0.963263    0.268559    0.000000
   IC    6937.134794          0.000000    0.000000    1.000000


 Rotational constants
 --------------------

@    The molecule is planar.

               A                   B                   C

           5713.2347             73.7922             72.8513 MHz
            0.190573            0.002461            0.002430 cm-1


@  Nuclear repulsion energy :  839.879465627210 Hartree


                     .---------------------------------------.
                     | Starting in Integral Section (HERMIT) |
                     `---------------------------------------'



 ***************************************************************************************
 ****************** Output from **INTEGRALS input processing (HERMIT) ******************
 ***************************************************************************************


 - Using defaults, no **INTEGRALS input found

 Default print level:        1

 Calculation of one-electron Hamiltonian integrals.

 Center of mass  (bohr):      0.084529064515     -0.254926480599      0.000000000000
 Operator center (bohr):      0.000000000000      0.000000000000      0.000000000000
 Gauge origin    (bohr):      0.000000000000      0.000000000000      0.000000000000
 Dipole origin   (bohr):      0.000000000000      0.000000000000      0.000000000000


     ************************************************************************
     ************************** Output from HERINT **************************
     ************************************************************************



                      Nuclear contribution to dipole moments
                      --------------------------------------

                 au               Debye          C m (/(10**-30)

      x      0.00000375         0.00000953         0.00003179
      y     -0.00000952        -0.00002420        -0.00008071
      z      0.00000000         0.00000000         0.00000000


  Time used in ONEDRV     is       5.38 seconds
  Time used in HUCKEL     is       1.34 seconds
  Time used in OVERLAP    is       0.75 seconds
  Time used in POPOVLP    is       1.46 seconds
  Time used in R2         is       0.93 seconds
  Time used in R4         is       1.12 seconds
  Time used in DIPLEN     is       1.51 seconds
  Time used in QUADRUP    is       3.06 seconds
  Time used in KINENE     is       1.19 seconds
  Time used in GABGEN     is      18.11 seconds
  Total CPU  time used in HERMIT:  34.85 seconds
  Total wall time used in HERMIT:  35.44 seconds


                        .----------------------------------.
                        | End of Integral Section (HERMIT) |
                        `----------------------------------'



                   .--------------------------------------------.
                   | Starting in Wave Function Section (SIRIUS) |
                   `--------------------------------------------'



@ Primary orbitals are deleted during canonical orthonormalization
@   because of detected numerical linear dependence or too large coefficients.
@ Eigenvalue threshold for num. lin. dep. =  1.00D-06

@  17 MO components are deleted in symmetry    1
 Overlap eigenvalues of the deleted orbitals:
  9.61D-07  9.15D-07  7.70D-07  7.35D-07  7.11D-07
  6.40D-07  5.67D-07  5.22D-07  4.84D-07  4.47D-07
  3.55D-07  3.03D-07  2.78D-07  2.67D-07  2.41D-07
  1.89D-07  5.33D-08

 Max MO coeff. of last deleted MO & limit:  3.33D+02  1.00D+03

WARNING: Orbitals have been deleted because of numerical
   linear dependence although not requested in input.

 *** Output from Huckel module :

     Using EWMO model:          T
     Using EHT  model:          F
     Number of Huckel orbitals each symmetry:   94

 EWMO - Energy Weighted Maximum Overlap - is a Huckel type method,
        which normally is better than Extended Huckel Theory.
 Reference: Linderberg and Ohrn, Propagators in Quantum Chemistry (Wiley, 1973)

 Huckel EWMO eigenvalues for symmetry :  1
          -20.684751     -20.683489     -15.677076     -15.674974     -11.359272
          -11.359089     -11.358575     -11.356923     -11.354453     -11.351843
          -11.348237     -11.346829     -11.345842     -11.345475     -11.345302
          -11.345275      -1.964070      -1.791004      -1.771497      -1.714524
           -1.610037      -1.472373      -1.438433      -1.304227      -1.191901
           -1.144337      -1.118703      -1.019259      -0.990557      -0.910296
           -0.869944      -0.851997      -0.824360      -0.768146      -0.765496
           -0.721976      -0.714853      -0.693582      -0.647974      -0.644434
           -0.611097      -0.594796      -0.585975      -0.566900      -0.547087
           -0.534422      -0.522376      -0.501686      -0.491914      -0.491873
           -0.489577      -0.479132      -0.478316      -0.467189      -0.424763
           -0.415728      -0.374310      -0.370913      -0.334716      -0.287126
           -0.253635      -0.229179      -0.228800      -0.211810      -0.201193
           -0.201104      -0.195466      -0.190507      -0.166495      -0.142763
           -0.138674      -0.132387      -0.130592      -0.130127      -0.129288
           -0.128661      -0.127701      -0.126874      -0.126319      -0.124647
           -0.124407      -0.123086      -0.110071      -0.108405      -0.101713
           -0.099251      -0.094039      -0.091531      -0.089081      -0.086814
           -0.085945      -0.083848      -0.081393      -0.079509

 **********************************************************************
 *SIRIUS* a direct, restricted step, second order MCSCF program       *
 **********************************************************************

 
     Date and time (Linux)  : Fri May 23 17:19:17 2025
     Host name              : xm045                                   

 Title lines from ".mol" input file:
     blah                                                                    
     blah                                                                    

 Print level on unit LUPRI =   2 is   0
 Print level on unit LUW4  =   2 is   5

@    Restricted, closed shell Hartree-Fock calculation.

@    Time-dependent Hartree-Fock calculation (random phase approximation).
 Fock matrices are calculated directly and in parallel without use of integrals on disk.

 Initial molecular orbitals are obtained according to
 ".MOSTART EWMO  " input option

     Wave function specification
     ============================
@    Wave function type        --- HF ---
@    Number of closed shell electrons         116
@    Number of electrons in active shells       0
@    Total charge of the molecule               0

@    Spin multiplicity and 2 M_S                1         0
@    Total number of symmetries                 1 (point group: C1 )
@    Reference state symmetry                   1 (irrep name : A  )

     Orbital specifications
     ======================
@    Abelian symmetry species          All |    1
@                                          |  A  
                                       --- |  ---
@    Occupied SCF orbitals              58 |   58
@    Secondary orbitals               1849 | 1849
@    Total number of orbitals         1907 | 1907
@    Number of basis functions        1924 | 1924

     Optimization information
     ========================
@    Number of configurations                 1
@    Number of orbital rotations         107242
     ------------------------------------------
@    Total number of variables           107243

     Maximum number of Fock   iterations      0
     Maximum number of DIIS   iterations     60
     Maximum number of QC-SCF iterations     60
     Threshold for SCF convergence     1.00D-05

    INFORMATION: Switched to "new" integral transformation (from 1988 ;-) )
    because more than 255 basis functions.


 ***********************************************
 ***** DIIS acceleration of SCF iterations *****
 ***********************************************

 C1-DIIS algorithm; max error vectors =    8

 Iter      Total energy        Error norm    Delta(E)  DIIS dim.
 -----------------------------------------------------------------------------
   1  Screening settings (-IFTHRS, JTDIIS, DIFDEN, times)  -10    1    T  4.62D+02  4.64D+02
@  1    -718.379709181        6.97525D+00   -7.18D+02    1
      Virial theorem: -V/T =      2.008464
@    MULPOP   C_a     0.47; C_b    -0.59; C_c    -0.22; C_d    -0.47; C_e    -0.29; C_f    -0.34; C_g    -0.26; C_h    -0.38; C_i    -0.25; C_j    -0.26; 
@             C_k    -0.36; C_l     0.10; N_a    -1.24; N_b     1.82; O_a    -1.68; O_b    -1.73; H_a     0.49; H_b     0.60; H_c     0.38; H_d     0.40; 
@             H_e     0.31; H_f     0.37; H_g     0.32; H_h     0.31; H_i     0.33; H_j     0.45; H_k     0.55; H_l     0.48; H_m     0.43; H_n     0.26; 
   1  Level shift: doubly occupied orbital energies shifted by -2.00D-01
 -----------------------------------------------------------------------------
   2  Screening settings (-IFTHRS, JTDIIS, DIFDEN, times)  -10    2    T  4.57D+02  4.59D+02
@  2    -720.816147614        2.92013D+00   -2.44D+00    2
      Virial theorem: -V/T =      2.001135
@    MULPOP   C_a    -0.08; C_b    -0.58; C_c    -0.35; C_d    -0.40; C_e    -0.32; C_f    -0.35; C_g    -0.30; C_h    -0.39; C_i    -0.30; C_j    -0.40; 
@             C_k    -0.44; C_l    -0.59; N_a    -0.93; N_b     0.18; O_a    -0.35; O_b    -0.22; H_a     0.51; H_b     0.50; H_c     0.38; H_d     0.39; 
@             H_e     0.34; H_f     0.36; H_g     0.34; H_h     0.34; H_i     0.37; H_j     0.42; H_k     0.53; H_l     0.55; H_m     0.44; H_n     0.36; 
   2  Level shift: doubly occupied orbital energies shifted by -1.00D-01
 -----------------------------------------------------------------------------
   3  Screening settings (-IFTHRS, JTDIIS, DIFDEN, times)  -10    3    T  4.42D+02  4.44D+02
@  3    -721.218243779        8.76750D-01   -4.02D-01    3
      Virial theorem: -V/T =      2.001206
@    MULPOP   C_a    -0.06; C_b    -0.54; C_c    -0.28; C_d    -0.38; C_e    -0.26; C_f    -0.31; C_g    -0.25; C_h    -0.33; C_i    -0.24; C_j    -0.35; 
@             C_k    -0.39; C_l    -0.31; N_a    -0.80; N_b     0.80; O_a    -0.66; O_b    -0.69; H_a     0.46; H_b     0.42; H_c     0.32; H_d     0.34; 
@             H_e     0.28; H_f     0.31; H_g     0.29; H_h     0.28; H_i     0.30; H_j     0.37; H_k     0.49; H_l     0.52; H_m     0.38; H_n     0.29; 
   3  Level shift: doubly occupied orbital energies shifted by -5.00D-02
 -----------------------------------------------------------------------------
   4  Screening settings (-IFTHRS, JTDIIS, DIFDEN, times)  -10    4    T  4.29D+02  4.34D+02
@  4    -721.265552301        2.54381D-01   -4.73D-02    4
      Virial theorem: -V/T =      2.003083
@    MULPOP   C_a    -0.04; C_b    -0.53; C_c    -0.26; C_d    -0.34; C_e    -0.22; C_f    -0.27; C_g    -0.20; C_h    -0.30; C_i    -0.19; C_j    -0.34; 
@             C_k    -0.37; C_l    -0.42; N_a    -0.74; N_b     0.65; O_a    -0.61; O_b    -0.57; H_a     0.44; H_b     0.39; H_c     0.29; H_d     0.31; 
@             H_e     0.24; H_f     0.28; H_g     0.26; H_h     0.26; H_i     0.28; H_j     0.36; H_k     0.48; H_l     0.54; H_m     0.34; H_n     0.26; 
   4  Level shift: doubly occupied orbital energies shifted by -2.50D-02
 -----------------------------------------------------------------------------
   5  Screening settings (-IFTHRS, JTDIIS, DIFDEN, times)  -14    5    F  5.14D+02  5.17D+02
@  5    -721.274409211        1.04037D-01   -8.86D-03    5
      Virial theorem: -V/T =      2.002428
@    MULPOP   C_a    -0.05; C_b    -0.53; C_c    -0.27; C_d    -0.34; C_e    -0.23; C_f    -0.28; C_g    -0.22; C_h    -0.30; C_i    -0.21; C_j    -0.35; 
@             C_k    -0.39; C_l    -0.39; N_a    -0.73; N_b     0.70; O_a    -0.60; O_b    -0.60; H_a     0.45; H_b     0.39; H_c     0.30; H_d     0.32; 
@             H_e     0.25; H_f     0.28; H_g     0.27; H_h     0.26; H_i     0.29; H_j     0.37; H_k     0.49; H_l     0.53; H_m     0.34; H_n     0.26; 
   5  Level shift: doubly occupied orbital energies shifted by -1.25D-02
 -----------------------------------------------------------------------------
   6  Screening settings (-IFTHRS, JTDIIS, DIFDEN, times)  -14    6    T  4.96D+02  4.98D+02
@  6    -721.276738085        5.08198D-02   -2.33D-03    6
      Virial theorem: -V/T =      2.002293
@    MULPOP   C_a    -0.05; C_b    -0.53; C_c    -0.28; C_d    -0.34; C_e    -0.23; C_f    -0.28; C_g    -0.22; C_h    -0.30; C_i    -0.20; C_j    -0.35; 
@             C_k    -0.38; C_l    -0.40; N_a    -0.74; N_b     0.69; O_a    -0.61; O_b    -0.59; H_a     0.45; H_b     0.39; H_c     0.30; H_d     0.32; 
@             H_e     0.25; H_f     0.28; H_g     0.27; H_h     0.26; H_i     0.29; H_j     0.37; H_k     0.49; H_l     0.54; H_m     0.34; H_n     0.26; 
 -----------------------------------------------------------------------------
   7  Screening settings (-IFTHRS, JTDIIS, DIFDEN, times)  -14    7    T  4.92D+02  4.94D+02
@  7    -721.277399899        2.43919D-02   -6.62D-04    7
      Virial theorem: -V/T =      2.002337
@    MULPOP   C_a    -0.05; C_b    -0.53; C_c    -0.28; C_d    -0.34; C_e    -0.23; C_f    -0.28; C_g    -0.22; C_h    -0.30; C_i    -0.21; C_j    -0.35; 
@             C_k    -0.38; C_l    -0.40; N_a    -0.74; N_b     0.69; O_a    -0.60; O_b    -0.59; H_a     0.45; H_b     0.39; H_c     0.30; H_d     0.32; 
@             H_e     0.25; H_f     0.28; H_g     0.27; H_h     0.26; H_i     0.29; H_j     0.37; H_k     0.50; H_l     0.54; H_m     0.34; H_n     0.26; 
 -----------------------------------------------------------------------------
   8  Screening settings (-IFTHRS, JTDIIS, DIFDEN, times)  -14    8    T  4.86D+02  4.88D+02
@  8    -721.277547502        1.00967D-02   -1.48D-04    8
      Virial theorem: -V/T =      2.002331
@    MULPOP   C_a    -0.05; C_b    -0.53; C_c    -0.28; C_d    -0.34; C_e    -0.23; C_f    -0.28; C_g    -0.22; C_h    -0.30; C_i    -0.21; C_j    -0.35; 
@             C_k    -0.39; C_l    -0.39; N_a    -0.75; N_b     0.69; O_a    -0.60; O_b    -0.59; H_a     0.45; H_b     0.39; H_c     0.30; H_d     0.32; 
@             H_e     0.25; H_f     0.28; H_g     0.27; H_h     0.26; H_i     0.29; H_j     0.37; H_k     0.50; H_l     0.54; H_m     0.34; H_n     0.26; 
 -----------------------------------------------------------------------------
   9  Screening settings (-IFTHRS, JTDIIS, DIFDEN, times)  -14    9    T  4.79D+02  4.81D+02
@  9    -721.277568838        3.75293D-03   -2.13D-05    8
      Virial theorem: -V/T =      2.002320
@    MULPOP   C_a    -0.05; C_b    -0.53; C_c    -0.28; C_d    -0.34; C_e    -0.23; C_f    -0.28; C_g    -0.22; C_h    -0.30; C_i    -0.21; C_j    -0.35; 
@             C_k    -0.38; C_l    -0.39; N_a    -0.75; N_b     0.69; O_a    -0.60; O_b    -0.59; H_a     0.45; H_b     0.39; H_c     0.30; H_d     0.32; 
@             H_e     0.25; H_f     0.28; H_g     0.27; H_h     0.26; H_i     0.29; H_j     0.37; H_k     0.50; H_l     0.54; H_m     0.34; H_n     0.26; 
 -----------------------------------------------------------------------------
  10  Screening settings (-IFTHRS, JTDIIS, DIFDEN, times)  -14   10    T  4.73D+02  4.76D+02
@ 10    -721.277573233        1.97968D-03   -4.40D-06    8
      Virial theorem: -V/T =      2.002321
@    MULPOP   C_a    -0.05; C_b    -0.53; C_c    -0.28; C_d    -0.34; C_e    -0.23; C_f    -0.28; C_g    -0.22; C_h    -0.30; C_i    -0.21; C_j    -0.35; 
@             C_k    -0.38; C_l    -0.39; N_a    -0.75; N_b     0.69; O_a    -0.60; O_b    -0.59; H_a     0.44; H_b     0.39; H_c     0.30; H_d     0.32; 
@             H_e     0.25; H_f     0.28; H_g     0.27; H_h     0.26; H_i     0.29; H_j     0.37; H_k     0.50; H_l     0.54; H_m     0.34; H_n     0.26; 
 -----------------------------------------------------------------------------
  11  Screening settings (-IFTHRS, JTDIIS, DIFDEN, times)  -14   11    T  4.66D+02  4.68D+02
@ 11    -721.277574702        1.18432D-03   -1.47D-06    8
      Virial theorem: -V/T =      2.002323
@    MULPOP   C_a    -0.05; C_b    -0.53; C_c    -0.28; C_d    -0.34; C_e    -0.23; C_f    -0.28; C_g    -0.22; C_h    -0.30; C_i    -0.21; C_j    -0.35; 
@             C_k    -0.38; C_l    -0.39; N_a    -0.75; N_b     0.69; O_a    -0.60; O_b    -0.59; H_a     0.44; H_b     0.39; H_c     0.30; H_d     0.32; 
@             H_e     0.25; H_f     0.28; H_g     0.27; H_h     0.26; H_i     0.29; H_j     0.37; H_k     0.50; H_l     0.54; H_m     0.34; H_n     0.26; 
 -----------------------------------------------------------------------------
  12  Screening settings (-IFTHRS, JTDIIS, DIFDEN, times)  -14   12    T  4.62D+02  4.67D+02
@ 12    -721.277575220        3.81853D-04   -5.19D-07    8
      Virial theorem: -V/T =      2.002321
@    MULPOP   C_a    -0.05; C_b    -0.53; C_c    -0.28; C_d    -0.34; C_e    -0.23; C_f    -0.28; C_g    -0.22; C_h    -0.30; C_i    -0.21; C_j    -0.35; 
@             C_k    -0.38; C_l    -0.39; N_a    -0.75; N_b     0.69; O_a    -0.60; O_b    -0.59; H_a     0.44; H_b     0.39; H_c     0.30; H_d     0.32; 
@             H_e     0.25; H_f     0.29; H_g     0.27; H_h     0.26; H_i     0.29; H_j     0.37; H_k     0.50; H_l     0.54; H_m     0.34; H_n     0.26; 
 -----------------------------------------------------------------------------
  13  Screening settings (-IFTHRS, JTDIIS, DIFDEN, times)  -14   13    T  4.55D+02  4.57D+02
@ 13    -721.277575279        1.55746D-04   -5.82D-08    8
      Virial theorem: -V/T =      2.002321
@    MULPOP   C_a    -0.05; C_b    -0.53; C_c    -0.28; C_d    -0.34; C_e    -0.23; C_f    -0.28; C_g    -0.22; C_h    -0.30; C_i    -0.21; C_j    -0.35; 
@             C_k    -0.38; C_l    -0.39; N_a    -0.75; N_b     0.69; O_a    -0.60; O_b    -0.59; H_a     0.44; H_b     0.39; H_c     0.30; H_d     0.32; 
@             H_e     0.25; H_f     0.29; H_g     0.27; H_h     0.26; H_i     0.29; H_j     0.37; H_k     0.50; H_l     0.54; H_m     0.34; H_n     0.26; 
 -----------------------------------------------------------------------------
  14  Screening settings (-IFTHRS, JTDIIS, DIFDEN, times)  -14   14    T  4.42D+02  4.44D+02
@ 14    -721.277575283        5.65250D-05   -4.17D-09    8
      Virial theorem: -V/T =      2.002322
@    MULPOP   C_a    -0.05; C_b    -0.53; C_c    -0.28; C_d    -0.34; C_e    -0.23; C_f    -0.28; C_g    -0.22; C_h    -0.30; C_i    -0.21; C_j    -0.35; 
@             C_k    -0.38; C_l    -0.39; N_a    -0.75; N_b     0.69; O_a    -0.60; O_b    -0.59; H_a     0.44; H_b     0.39; H_c     0.30; H_d     0.32; 
@             H_e     0.25; H_f     0.29; H_g     0.27; H_h     0.26; H_i     0.29; H_j     0.37; H_k     0.50; H_l     0.54; H_m     0.34; H_n     0.26; 
 -----------------------------------------------------------------------------
  15  Screening settings (-IFTHRS, JTDIIS, DIFDEN, times)  -14   15    T  4.33D+02  4.36D+02
@ 15    -721.277575284        2.25803D-05   -7.13D-10    8
      Virial theorem: -V/T =      2.002322
@    MULPOP   C_a    -0.05; C_b    -0.53; C_c    -0.28; C_d    -0.34; C_e    -0.23; C_f    -0.28; C_g    -0.22; C_h    -0.30; C_i    -0.21; C_j    -0.35; 
@             C_k    -0.38; C_l    -0.39; N_a    -0.75; N_b     0.69; O_a    -0.60; O_b    -0.59; H_a     0.44; H_b     0.39; H_c     0.30; H_d     0.32; 
@             H_e     0.25; H_f     0.29; H_g     0.27; H_h     0.26; H_i     0.29; H_j     0.37; H_k     0.50; H_l     0.54; H_m     0.34; H_n     0.26; 
 -----------------------------------------------------------------------------
  16  Screening settings (-IFTHRS, JTDIIS, DIFDEN, times)  -14   16    T  4.34D+02  4.36D+02
@ 16    -721.277575284        1.06798D-05   -7.46D-11    8
      Virial theorem: -V/T =      2.002322
@    MULPOP   C_a    -0.05; C_b    -0.53; C_c    -0.28; C_d    -0.34; C_e    -0.23; C_f    -0.28; C_g    -0.22; C_h    -0.30; C_i    -0.21; C_j    -0.35; 
@             C_k    -0.38; C_l    -0.39; N_a    -0.75; N_b     0.69; O_a    -0.60; O_b    -0.59; H_a     0.44; H_b     0.39; H_c     0.30; H_d     0.32; 
@             H_e     0.25; H_f     0.29; H_g     0.27; H_h     0.26; H_i     0.29; H_j     0.37; H_k     0.50; H_l     0.54; H_m     0.34; H_n     0.26; 
 -----------------------------------------------------------------------------
  17  Screening settings (-IFTHRS, JTDIIS, DIFDEN, times)  -14   17    T  4.35D+02  4.37D+02
@ 17    -721.277575284        6.02553D-06   -3.27D-11    8

@ *** DIIS converged in  17 iterations !
@     Converged SCF energy, gradient:   -721.277575283628    6.03D-06
    - total time used in SIRFCK :              0.00 seconds


 *** SCF orbital energy analysis ***

 Only the 20 lowest virtual orbital energies printed in each symmetry.

 Number of electrons :  116
 Orbital occupations :   58

 Sym       Hartree-Fock orbital energies

1 A     -20.58065232   -20.57783400   -15.83213798   -15.59795074   -11.31048830
        -11.28417376   -11.28189627   -11.27349761   -11.26552489   -11.26246254
        -11.26052570   -11.25199858   -11.24598422   -11.24094765   -11.23549518
        -11.23269812    -1.57267922    -1.37054271    -1.24464491    -1.13789571
         -1.11955161    -1.09817186    -1.06712416    -1.02748681    -0.98057648
         -0.93526915    -0.86927807    -0.82272200    -0.79301381    -0.78084028
         -0.77050345    -0.76492544    -0.73131732    -0.72463577    -0.70773332
         -0.69167165    -0.68784230    -0.65862928    -0.65025043    -0.62539838
         -0.60106365    -0.59044788    -0.56915606    -0.54869378    -0.54691215
         -0.53240332    -0.53036111    -0.51874635    -0.50843201    -0.49271824
         -0.47673750    -0.47410150    -0.46699353    -0.43550604    -0.42827616
         -0.37687229    -0.31507434    -0.24954619     0.01032642     0.01847096
          0.01904999     0.02473638     0.02860230     0.03189988     0.04068082
          0.04560171     0.05423265     0.05871365     0.06225936     0.06662215
          0.06928834     0.06938011     0.07305823     0.07499936     0.07768777
          0.07826774     0.08198965     0.08232850

    E(LUMO) :     0.01032642 au (symmetry 1)
  - E(HOMO) :    -0.24954619 au (symmetry 1)
  ------------------------------------------
    gap     :     0.25987260 au

 --- Writing SIRIFC interface file

 CPU and wall time for SCF :    8735.365    8791.160


                       .-----------------------------------.
                       | --- Final results from SIRIUS --- |
                       `-----------------------------------'


@    Spin multiplicity:           1
@    Spatial symmetry:            1 ( irrep  A   in C1  )
@    Total charge of molecule:    0

@    Final HF energy:            -721.277575283628                 
@    Nuclear repulsion:           839.879465627210
@    Electronic energy:         -1561.157040910839

@    Final gradient norm:           0.000006025529

 
     Date and time (Linux)  : Fri May 23 19:46:12 2025
     Host name              : xm045                                   

File label for MO orbitals:  23May25   FOCKDIIS

 (Only coefficients > 0.0100 are printed.)

 Molecular orbitals for symmetry species 1  (A  )
 ------------------------------------------------

    Orbital        49       50       51       52       53       54       55
   4 C_a :1s     0.0179   0.0000   0.0005   0.0022   0.0000   0.0000  -0.0000
   5 C_a :1s     0.0230  -0.0000   0.0066  -0.0072  -0.0000  -0.0000   0.0000
   6 C_a :1s     0.0007  -0.0000  -0.0345  -0.0364  -0.0000  -0.0000   0.0000
   7 C_a :2px   -0.0298  -0.0000   0.0005  -0.0000  -0.0000  -0.0000   0.0000
   9 C_a :2pz   -0.0000   0.0338   0.0000   0.0000   0.0311  -0.0018   0.0300
  14 C_a :2py   -0.0181  -0.0000  -0.0004   0.0020  -0.0000  -0.0000   0.0000
  17 C_a :2py    0.0256  -0.0000   0.0112   0.0240   0.0000   0.0000   0.0000
  28 C_a :3d1-   0.0000   0.0023   0.0000  -0.0000   0.0065   0.0010  -0.0105
  32 C_a :3d2-   0.0105   0.0000  -0.0004   0.0009   0.0000   0.0000  -0.0000
  33 C_a :3d1-   0.0000   0.0016   0.0000  -0.0000   0.0066   0.0013  -0.0129
  41 C_a :3d2+   0.0160   0.0000   0.0001   0.0016   0.0000   0.0000  -0.0000
  82 C_b :1s     0.0574   0.0000   0.0028  -0.0002   0.0000   0.0000  -0.0000
  84 C_b :1s     0.0174   0.0000  -0.0067   0.0021   0.0000   0.0000  -0.0000
  85 C_b :1s    -0.0128   0.0000   0.0163   0.0585   0.0000   0.0000   0.0000
  86 C_b :1s    -0.0453  -0.0000   0.0362  -0.0127  -0.0000  -0.0000   0.0000
  87 C_b :2px    0.1749   0.0000   0.0036  -0.0003   0.0000   0.0000  -0.0000
  88 C_b :2py   -0.0931  -0.0000  -0.0063   0.0004  -0.0000  -0.0000   0.0000
  89 C_b :2pz    0.0000  -0.0208   0.0000  -0.0000  -0.1086  -0.0203   0.2196
  94 C_b :2py   -0.0123  -0.0000   0.0009   0.0018  -0.0000  -0.0000   0.0000
  96 C_b :2px   -0.0202   0.0000  -0.0096   0.0258   0.0000   0.0000  -0.0000
  97 C_b :2py    0.0582   0.0000  -0.0035  -0.0168   0.0000   0.0000  -0.0000
 100 C_b :2py    0.0050   0.0000   0.0139   0.0266   0.0000  -0.0000   0.0000
 116 C_b :3d2+   0.0351   0.0000   0.0010   0.0042   0.0000   0.0000  -0.0000
 120 C_b :3d1+  -0.0000   0.0150  -0.0000   0.0000   0.0012  -0.0002  -0.0004
 121 C_b :3d2+   0.0224   0.0000  -0.0016   0.0045   0.0000   0.0000  -0.0000
 136 C_b :4f3-  -0.0112  -0.0000  -0.0002   0.0016  -0.0000  -0.0000   0.0000
 162 C_c :1s     0.0449   0.0000  -0.0025   0.0003   0.0000   0.0000  -0.0000
 164 C_c :1s     0.0469   0.0000  -0.0075  -0.0060   0.0000   0.0000  -0.0000
 165 C_c :1s     0.0079   0.0000  -0.0093  -0.0473   0.0000   0.0000  -0.0000
 166 C_c :1s    -0.0255  -0.0000   0.0454   0.0673   0.0000   0.0000   0.0000
 167 C_c :2px   -0.2511  -0.0000  -0.0025   0.0001  -0.0000  -0.0000   0.0000
 169 C_c :2pz    0.0000  -0.0927   0.0000  -0.0000  -0.2562  -0.0314   0.3112
 173 C_c :2px   -0.0118  -0.0000   0.0003   0.0001  -0.0000  -0.0000   0.0000
 174 C_c :2py   -0.0149   0.0000  -0.0008   0.0005   0.0000  -0.0000   0.0000
 176 C_c :2px   -0.0425  -0.0000   0.0164   0.0178  -0.0000  -0.0000   0.0000
 177 C_c :2py    0.0610  -0.0000   0.0226  -0.0306  -0.0000  -0.0000  -0.0000
 179 C_c :2px   -0.0018  -0.0000  -0.0092  -0.0121  -0.0000  -0.0000   0.0000
 180 C_c :2py    0.0018  -0.0000  -0.0065  -0.0187  -0.0000   0.0000  -0.0000
 191 C_c :3d2+  -0.0127  -0.0000  -0.0001   0.0001  -0.0000  -0.0000   0.0000
 192 C_c :3d2-   0.0234   0.0000  -0.0029  -0.0041   0.0000   0.0000  -0.0000
 195 C_c :3d1+  -0.0000   0.0002  -0.0000   0.0000   0.0085   0.0009  -0.0112
 196 C_c :3d2+   0.0463   0.0000  -0.0024  -0.0036   0.0000   0.0000  -0.0000
 197 C_c :3d2-   0.0070  -0.0000   0.0183   0.0077   0.0000   0.0000  -0.0000
 198 C_c :3d1-   0.0000  -0.0178   0.0000   0.0000   0.0066   0.0020  -0.0127
 201 C_c :3d2+   0.0243   0.0000  -0.0052  -0.0090   0.0000   0.0000  -0.0000
 216 C_c :4f3-  -0.0110  -0.0000   0.0033   0.0043  -0.0000  -0.0000   0.0000
 242 C_d :1s     0.0670   0.0000   0.0051  -0.0001   0.0000   0.0000  -0.0000
 244 C_d :1s     0.0533   0.0000  -0.0030   0.0026   0.0000   0.0000  -0.0000
 245 C_d :1s    -0.0199   0.0000  -0.0388  -0.0452  -0.0000  -0.0000  -0.0000
 246 C_d :1s     0.0184   0.0000   0.0113  -0.0454   0.0000   0.0000  -0.0000
 247 C_d :2px    0.3661   0.0000   0.0091  -0.0003   0.0000   0.0000  -0.0000
 248 C_d :2py   -0.0562   0.0000  -0.0135   0.0009   0.0000   0.0000  -0.0000
 249 C_d :2pz    0.0000  -0.1439   0.0000   0.0000  -0.3219  -0.0291   0.2624
 253 C_d :2px    0.0198   0.0000   0.0017   0.0026   0.0000   0.0000  -0.0000
 256 C_d :2px    0.0419   0.0000   0.0057   0.0067   0.0000   0.0000  -0.0000
 257 C_d :2py    0.0254  -0.0000   0.0099   0.0127  -0.0000  -0.0000   0.0000
 259 C_d :2px    0.0044   0.0000   0.0120  -0.0114   0.0000   0.0000  -0.0000
 260 C_d :2py    0.0166   0.0000  -0.0297   0.0077   0.0000   0.0000  -0.0000
 267 C_d :3d2-  -0.0117  -0.0000  -0.0006  -0.0001  -0.0000  -0.0000   0.0000
 271 C_d :3d2+  -0.0149  -0.0000   0.0002  -0.0001  -0.0000  -0.0000   0.0000
 272 C_d :3d2-   0.0135   0.0000  -0.0050  -0.0054   0.0000   0.0000  -0.0000
 275 C_d :3d1+   0.0000  -0.0018   0.0000  -0.0000  -0.0150  -0.0018   0.0109
 276 C_d :3d2+   0.0581   0.0000  -0.0087  -0.0076   0.0000   0.0000  -0.0000
 277 C_d :3d2-  -0.0048  -0.0000   0.0212   0.0021   0.0000   0.0000  -0.0000
 278 C_d :3d1-   0.0000  -0.0196   0.0000  -0.0000   0.0093  -0.0002  -0.0161
 280 C_d :3d1+  -0.0000   0.0150   0.0000   0.0000  -0.0057  -0.0021   0.0051
 281 C_d :3d2+   0.0212   0.0000  -0.0334  -0.0122   0.0000   0.0000  -0.0000
 322 C_e :1s     0.0794   0.0000  -0.0041   0.0006   0.0000   0.0000  -0.0000
 324 C_e :1s     0.0542   0.0000   0.0012  -0.0007   0.0000   0.0000  -0.0000
 325 C_e :1s    -0.0224   0.0000  -0.0033   0.0192  -0.0000  -0.0000  -0.0000
 326 C_e :1s    -0.0220  -0.0000   0.0436   0.0568  -0.0000  -0.0000   0.0000
 327 C_e :2px   -0.3642  -0.0000  -0.0068  -0.0004  -0.0000  -0.0000   0.0000
 328 C_e :2py    0.0529   0.0000   0.0189  -0.0020   0.0000  -0.0000  -0.0000
 329 C_e :2pz   -0.0000  -0.2083  -0.0000   0.0000  -0.3162  -0.0084   0.0183
 333 C_e :2px   -0.0179  -0.0000  -0.0024   0.0026  -0.0000  -0.0000   0.0000
 336 C_e :2px   -0.0435   0.0000  -0.0298   0.0061   0.0000   0.0000   0.0000
 337 C_e :2py   -0.0060  -0.0000   0.0493  -0.0003  -0.0000  -0.0000   0.0000
 340 C_e :2py   -0.0071  -0.0000  -0.0194  -0.0028  -0.0000  -0.0000   0.0000
 347 C_e :3d2-  -0.0125  -0.0000  -0.0008  -0.0001  -0.0000   0.0000   0.0000
 351 C_e :3d2+  -0.0157  -0.0000  -0.0002  -0.0001  -0.0000  -0.0000   0.0000
 352 C_e :3d2-   0.0184   0.0000   0.0047   0.0066   0.0000   0.0000  -0.0000
 353 C_e :3d1-  -0.0000  -0.0001  -0.0000   0.0000   0.0109   0.0011   0.0006
 354 C_e :3d0    0.0109   0.0000   0.0005  -0.0018   0.0000   0.0000  -0.0000
 355 C_e :3d1+   0.0000   0.0062   0.0000  -0.0000   0.0136   0.0013  -0.0009
 356 C_e :3d2+   0.0564   0.0000  -0.0022   0.0024   0.0000   0.0000  -0.0000
 357 C_e :3d2-   0.0057  -0.0000   0.0456   0.0101  -0.0000   0.0000  -0.0000
 358 C_e :3d1-   0.0000  -0.0180   0.0000   0.0000   0.0273   0.0065  -0.0176
 359 C_e :3d0    0.0064   0.0000  -0.0131  -0.0059  -0.0000  -0.0000   0.0000
 361 C_e :3d2+   0.0274   0.0000  -0.0211  -0.0042   0.0000   0.0000   0.0000
 402 C_f :1s     0.0508   0.0000   0.0095  -0.0008   0.0000   0.0000  -0.0000
 404 C_f :1s     0.0533   0.0000  -0.0021  -0.0049   0.0000   0.0000  -0.0000
 405 C_f :1s    -0.0330   0.0000  -0.0172   0.0477  -0.0000  -0.0000   0.0000
 406 C_f :1s    -0.0116  -0.0000  -0.0142  -0.0218   0.0000   0.0000   0.0000
 407 C_f :2px    0.3093   0.0000   0.0182   0.0003   0.0000   0.0000  -0.0000
 408 C_f :2py   -0.0136   0.0000  -0.0267   0.0025   0.0000   0.0000  -0.0000
 409 C_f :2pz   -0.0000  -0.2546  -0.0000   0.0000  -0.2660   0.0088  -0.1563
 413 C_f :2px    0.0173   0.0000  -0.0012  -0.0059   0.0000   0.0000  -0.0000
 414 C_f :2py    0.0137  -0.0000  -0.0024   0.0005   0.0000  -0.0000  -0.0000
 416 C_f :2px    0.0365  -0.0000   0.0173   0.0001  -0.0000  -0.0000   0.0000
 417 C_f :2py   -0.0442   0.0000  -0.0380   0.0032   0.0000   0.0000  -0.0000
 420 C_f :2py   -0.0008   0.0000  -0.0192  -0.0035  -0.0000   0.0000  -0.0000
 427 C_f :3d2-  -0.0118  -0.0000  -0.0011   0.0002   0.0000   0.0000   0.0000
 431 C_f :3d2+  -0.0134  -0.0000   0.0006   0.0000  -0.0000  -0.0000   0.0000
 432 C_f :3d2-   0.0216   0.0000  -0.0005   0.0082   0.0000   0.0000  -0.0000
 435 C_f :3d1+  -0.0000  -0.0070  -0.0000   0.0000  -0.0133   0.0008  -0.0088
 436 C_f :3d2+   0.0489   0.0000   0.0037   0.0105   0.0000   0.0000  -0.0000
 437 C_f :3d2-   0.0121  -0.0000   0.0465   0.0125   0.0000   0.0000  -0.0000
 438 C_f :3d1-   0.0000  -0.0182   0.0000  -0.0000   0.0316   0.0043  -0.0186
 440 C_f :3d1+  -0.0000   0.0132   0.0000   0.0000  -0.0121  -0.0018  -0.0030
 441 C_f :3d2+   0.0223   0.0000  -0.0288   0.0000  -0.0000  -0.0000   0.0000
 482 C_g :1s     0.0727   0.0000  -0.0088  -0.0007   0.0000   0.0000  -0.0000
 484 C_g :1s     0.0394   0.0000   0.0060   0.0190   0.0000   0.0000  -0.0000
 485 C_g :1s    -0.0199   0.0000  -0.0693   0.0429   0.0000   0.0000  -0.0000
 486 C_g :1s    -0.0250  -0.0000   0.0320  -0.0329  -0.0000  -0.0000  -0.0000
 487 C_g :2px   -0.2524  -0.0000  -0.0134  -0.0004  -0.0000  -0.0000   0.0000
 488 C_g :2py    0.0870  -0.0000   0.0385  -0.0017  -0.0000  -0.0000   0.0000
 489 C_g :2pz   -0.0000  -0.3017   0.0000   0.0000  -0.1087   0.0282  -0.3029
 493 C_g :2px   -0.0140  -0.0000  -0.0033  -0.0104  -0.0000  -0.0000   0.0000
 494 C_g :2py   -0.0018  -0.0000  -0.0126  -0.0039  -0.0000  -0.0000   0.0000
 496 C_g :2px   -0.0123  -0.0000  -0.0033   0.0080  -0.0000  -0.0000   0.0000
 497 C_g :2py   -0.0169   0.0000   0.0027  -0.0577  -0.0000  -0.0000  -0.0000
 499 C_g :2px   -0.0057  -0.0000   0.0298  -0.0177  -0.0000  -0.0000   0.0000
 500 C_g :2py    0.0106   0.0000  -0.0493  -0.0020  -0.0000  -0.0000   0.0000
 501 C_g :2pz   -0.0000  -0.0004   0.0000   0.0000  -0.0002   0.0132  -0.0039
 515 C_g :3d1+  -0.0000   0.0104  -0.0000   0.0000   0.0037  -0.0012   0.0155
 516 C_g :3d2+   0.0456   0.0000  -0.0128  -0.0034   0.0000   0.0000  -0.0000
 517 C_g :3d2-  -0.0051  -0.0000   0.0329   0.0258  -0.0000   0.0000  -0.0000
 518 C_g :3d1-   0.0000  -0.0133  -0.0000  -0.0000   0.0399   0.0043   0.0003
 520 C_g :3d1+  -0.0000  -0.0043  -0.0000  -0.0000  -0.0091  -0.0039   0.0132
 521 C_g :3d2+   0.0259   0.0000  -0.0677  -0.0133   0.0000   0.0000  -0.0000
 562 C_h :1s     0.0182   0.0000   0.0173  -0.0057   0.0000   0.0000  -0.0000
 564 C_h :1s     0.0387   0.0000   0.0031   0.0140   0.0000   0.0000  -0.0000
 565 C_h :1s     0.0076   0.0000  -0.0395  -0.0659   0.0000   0.0000  -0.0000
 566 C_h :1s    -0.0148  -0.0000   0.0258  -0.0285   0.0000   0.0000  -0.0000
 567 C_h :2px    0.1413   0.0000   0.0329  -0.0096   0.0000   0.0000  -0.0000
 568 C_h :2py   -0.0181   0.0000  -0.0517   0.0081   0.0000   0.0000  -0.0000
 569 C_h :2pz    0.0000  -0.3292  -0.0000  -0.0000   0.0178   0.0313  -0.2869
 573 C_h :2px    0.0075   0.0000   0.0037   0.0120   0.0000   0.0000  -0.0000
 574 C_h :2py    0.0164  -0.0000  -0.0047  -0.0175   0.0000   0.0000  -0.0000
 576 C_h :2px    0.0208   0.0000  -0.0013  -0.0371   0.0000   0.0000  -0.0000
 577 C_h :2py   -0.0382   0.0000   0.0259   0.0137   0.0000   0.0000  -0.0000
 579 C_h :2px    0.0046   0.0000   0.0043   0.0152   0.0000   0.0000  -0.0000
 580 C_h :2py    0.0000  -0.0000   0.0152  -0.0054  -0.0000  -0.0000   0.0000
 592 C_h :3d2-   0.0204   0.0000  -0.0087  -0.0119   0.0000   0.0000  -0.0000
 595 C_h :3d1+   0.0000  -0.0106  -0.0000  -0.0000  -0.0001   0.0014  -0.0148
 596 C_h :3d2+   0.0326   0.0000   0.0097   0.0085   0.0000   0.0000  -0.0000
 597 C_h :3d2-   0.0196  -0.0000   0.0274  -0.0049   0.0000   0.0000  -0.0000
 598 C_h :3d1-   0.0000  -0.0111   0.0000  -0.0000   0.0426  -0.0042   0.0040
 600 C_h :3d1+  -0.0000   0.0095  -0.0000   0.0000  -0.0084  -0.0003  -0.0149
 601 C_h :3d2+   0.0128   0.0000  -0.0196   0.0190  -0.0000  -0.0000   0.0000
 642 C_i :1s     0.0439   0.0000  -0.0229  -0.0089   0.0000   0.0000  -0.0000
 644 C_i :1s     0.0177   0.0000   0.0308  -0.0128   0.0000   0.0000  -0.0000
 645 C_i :1s     0.0141  -0.0000  -0.0240  -0.0387   0.0000   0.0000  -0.0000
 646 C_i :1s     0.0022  -0.0000   0.0844  -0.0278   0.0000  -0.0000   0.0000
 647 C_i :2px   -0.1062  -0.0000  -0.0188   0.0226  -0.0000  -0.0000   0.0000
 648 C_i :2py    0.0681  -0.0000   0.0840   0.0127  -0.0000   0.0000   0.0000
 649 C_i :2pz    0.0000  -0.3284   0.0000  -0.0000   0.1947   0.0150  -0.0588
 653 C_i :2px   -0.0070  -0.0000  -0.0043   0.0175  -0.0000  -0.0000   0.0000
 654 C_i :2py    0.0025   0.0000  -0.0244  -0.0020   0.0000   0.0000  -0.0000
 656 C_i :2px    0.0038  -0.0000  -0.0214   0.0131  -0.0000  -0.0000  -0.0000
 657 C_i :2py   -0.0063  -0.0000  -0.0314   0.0181  -0.0000  -0.0000   0.0000
 658 C_i :2pz    0.0000   0.0039   0.0000   0.0000   0.0002  -0.0118   0.0022
 659 C_i :2px   -0.0033   0.0000  -0.0220   0.0138  -0.0000  -0.0000   0.0000
 660 C_i :2py    0.0073   0.0000  -0.0630   0.0228  -0.0000  -0.0000   0.0000
 661 C_i :2pz    0.0000  -0.0046   0.0000  -0.0000   0.0025  -0.0216  -0.0026
 672 C_i :3d2-   0.0037   0.0000   0.0148   0.0172   0.0000   0.0000  -0.0000
 675 C_i :3d1+  -0.0000   0.0109  -0.0000   0.0000  -0.0109   0.0009   0.0048
 676 C_i :3d2+   0.0288   0.0000   0.0096   0.0189   0.0000   0.0000  -0.0000
 677 C_i :3d2-  -0.0107  -0.0000   0.0583   0.0073  -0.0000   0.0000  -0.0000
 678 C_i :3d1-   0.0000  -0.0025   0.0000  -0.0000   0.0320   0.0101   0.0189
 679 C_i :3d0    0.0031  -0.0000  -0.0177  -0.0074   0.0000   0.0000  -0.0000
 680 C_i :3d1+   0.0000  -0.0061  -0.0000  -0.0000  -0.0155  -0.0028  -0.0002
 681 C_i :3d2+   0.0171   0.0000  -0.0158   0.0155   0.0000   0.0000  -0.0000
 722 C_j :1s    -0.0055   0.0000   0.0359  -0.0049   0.0000   0.0000  -0.0000
 724 C_j :1s     0.0219   0.0000  -0.0008  -0.0047   0.0000   0.0000  -0.0000
 725 C_j :1s     0.0273   0.0000   0.0256  -0.0745   0.0000   0.0000  -0.0000
 726 C_j :1s    -0.0348  -0.0000   0.1514   0.2368  -0.0000  -0.0000   0.0000
 727 C_j :2px    0.0327   0.0000   0.0506  -0.0576   0.0000  -0.0000  -0.0000
 728 C_j :2py   -0.0208   0.0000  -0.1082  -0.0011   0.0000   0.0000  -0.0000
 729 C_j :2pz    0.0000  -0.3135   0.0000  -0.0000   0.2766   0.0009   0.1169
 734 C_j :2py    0.0120  -0.0000  -0.0250   0.0082   0.0000   0.0000  -0.0000
 736 C_j :2px   -0.0038  -0.0000   0.0568  -0.0012   0.0000  -0.0000  -0.0000
 737 C_j :2py   -0.0165   0.0000  -0.0660   0.0685  -0.0000  -0.0000   0.0000
 739 C_j :2px   -0.0034  -0.0000   0.0381  -0.0006   0.0000  -0.0000   0.0000
 740 C_j :2py    0.0105   0.0000  -0.1101   0.0407  -0.0000  -0.0000   0.0000
 752 C_j :3d2-   0.0134   0.0000  -0.0151   0.0185   0.0000   0.0000  -0.0000
 753 C_j :3d1-  -0.0000  -0.0047  -0.0000   0.0000   0.0117   0.0057   0.0046
 755 C_j :3d1+   0.0000  -0.0097   0.0000  -0.0000   0.0109  -0.0005   0.0039
 756 C_j :3d2+   0.0150   0.0000   0.0112  -0.0032   0.0000   0.0000  -0.0000
 757 C_j :3d2-   0.0145  -0.0000   0.0419   0.0218   0.0000   0.0000   0.0000
 758 C_j :3d1-   0.0000   0.0019   0.0000  -0.0000   0.0288   0.0023   0.0191
 759 C_j :3d0    0.0061   0.0000  -0.0061  -0.0119   0.0000   0.0000   0.0000
 761 C_j :3d2+   0.0096   0.0000  -0.0844  -0.0689  -0.0000  -0.0000   0.0000
 802 C_k :1s     0.0225   0.0000  -0.0302   0.0487  -0.0000   0.0000   0.0000
 804 C_k :1s     0.0039   0.0000  -0.0072   0.0667   0.0000   0.0000  -0.0000
 805 C_k :1s    -0.0025   0.0000   0.0234   0.0918   0.0000   0.0000   0.0000
 806 C_k :1s     0.0145   0.0000  -0.1076  -0.1537  -0.0000   0.0000   0.0000
 807 C_k :2px   -0.0281   0.0000  -0.0222   0.0716   0.0000   0.0000  -0.0000
 808 C_k :2py    0.0270   0.0000   0.1592  -0.0334   0.0000   0.0000  -0.0000
 809 C_k :2pz   -0.0000  -0.2279  -0.0000   0.0000   0.2739  -0.0195   0.2849
 813 C_k :2px   -0.0029  -0.0000   0.0270  -0.0192  -0.0000  -0.0000  -0.0000
 814 C_k :2py    0.0030  -0.0000  -0.0118  -0.0131   0.0000   0.0000  -0.0000
 816 C_k :2px    0.0140   0.0000   0.0502  -0.0631   0.0000   0.0000  -0.0000
 817 C_k :2py    0.0071   0.0000   0.0103   0.0573  -0.0000   0.0000  -0.0000
 818 C_k :2pz   -0.0000   0.0066  -0.0000  -0.0000  -0.0057   0.0146  -0.0023
 819 C_k :2px   -0.0062  -0.0000   0.0449   0.0741   0.0000   0.0000   0.0000
 820 C_k :2py    0.0036   0.0000  -0.0460  -0.1039  -0.0000  -0.0000  -0.0000
 821 C_k :2pz   -0.0000  -0.0001  -0.0000   0.0000   0.0025   0.0265   0.0070
 832 C_k :3d2-   0.0008   0.0000   0.0027   0.0105  -0.0000   0.0000  -0.0000
 835 C_k :3d1+   0.0000   0.0061   0.0000  -0.0000  -0.0136  -0.0070  -0.0122
 836 C_k :3d2+   0.0109   0.0000   0.0157  -0.0038   0.0000   0.0000  -0.0000
 837 C_k :3d2-  -0.0115  -0.0000   0.0651   0.0168  -0.0000   0.0000  -0.0000
 838 C_k :3d1-   0.0000   0.0014   0.0000  -0.0000   0.0137   0.0013   0.0119
 839 C_k :3d0   -0.0003  -0.0000   0.0225   0.0128   0.0000   0.0000  -0.0000
 840 C_k :3d1+  -0.0000  -0.0146  -0.0000   0.0000  -0.0080  -0.0073  -0.0041
 841 C_k :3d2+   0.0086  -0.0000  -0.0362  -0.0023   0.0000   0.0000  -0.0000
 862 C_k :4f3+  -0.0023  -0.0000   0.0031   0.0245  -0.0000   0.0000   0.0000
 882 C_l :1s    -0.0155   0.0000   0.1058   0.0180  -0.0000  -0.0000  -0.0000
 884 C_l :1s     0.0063   0.0000   0.0326  -0.0386   0.0000   0.0000  -0.0000
 885 C_l :1s     0.0378  -0.0000  -0.0353   0.1007   0.0000   0.0000  -0.0000
 886 C_l :1s     0.0229   0.0000  -0.2967  -0.0391  -0.0000  -0.0000  -0.0000
 887 C_l :2px   -0.0111  -0.0000   0.1990   0.1615  -0.0000   0.0000  -0.0000
 888 C_l :2py   -0.0013  -0.0000  -0.2439  -0.0114  -0.0000  -0.0000   0.0000
 889 C_l :2pz   -0.0000  -0.1637  -0.0000   0.0000   0.2258  -0.0099   0.2961
 893 C_l :2px   -0.0010   0.0000  -0.0013  -0.0115   0.0000   0.0000  -0.0000
 894 C_l :2py    0.0014  -0.0000   0.0438  -0.0600   0.0000  -0.0000   0.0000
 896 C_l :2px    0.0044   0.0000  -0.0500  -0.0824  -0.0000   0.0000  -0.0000
 897 C_l :2py    0.0118   0.0000   0.0060  -0.1479  -0.0000  -0.0000   0.0000
 899 C_l :2px    0.0015   0.0000  -0.0106  -0.0236  -0.0000   0.0000  -0.0000
 900 C_l :2py    0.0073   0.0000  -0.0654   0.0937  -0.0000  -0.0000   0.0000
 901 C_l :2pz   -0.0000  -0.0023   0.0000   0.0000   0.0006  -0.0213   0.0007
 907 C_l :3d2-  -0.0001  -0.0000  -0.0162  -0.0040   0.0000  -0.0000   0.0000
 913 C_l :3d1-  -0.0000  -0.0067   0.0000   0.0000   0.0107  -0.0076   0.0113
 916 C_l :3d2+  -0.0003   0.0000   0.0310  -0.0208   0.0000   0.0000   0.0000
 917 C_l :3d2-   0.0021  -0.0000   0.0450   0.0451   0.0000  -0.0000   0.0000
 918 C_l :3d1-   0.0000   0.0016   0.0000  -0.0000   0.0090  -0.0174   0.0080
 920 C_l :3d1+   0.0000   0.0101   0.0000  -0.0000   0.0009  -0.0092  -0.0029
 921 C_l :3d2+  -0.0060   0.0000   0.0479  -0.0326   0.0000  -0.0000   0.0000
 929 C_l :4f3-   0.0002   0.0000  -0.0113   0.0083  -0.0000   0.0000  -0.0000
 935 C_l :4f3+  -0.0004  -0.0000  -0.0014  -0.0124  -0.0000  -0.0000  -0.0000
 936 C_l :4f3-   0.0017   0.0000  -0.0063   0.0133  -0.0000   0.0000  -0.0000
 962 N_a :1s     0.0184   0.0000   0.0009  -0.0001   0.0000   0.0000  -0.0000
 966 N_a :1s     0.0061   0.0000   0.0140   0.0161   0.0000   0.0000  -0.0000
 967 N_a :2px    0.0132   0.0000   0.0004  -0.0000   0.0000   0.0000  -0.0000
 968 N_a :2py   -0.0331   0.0000  -0.0020   0.0001  -0.0000  -0.0000   0.0000
 969 N_a :2pz   -0.0000   0.0981  -0.0000   0.0000   0.2056   0.0247  -0.2511
 978 N_a :2pz   -0.0000   0.0024  -0.0000   0.0000   0.0098   0.0019  -0.0139
1042 N_b :1s     0.0034  -0.0000   0.0255   0.0070   0.0000  -0.0000   0.0000
1045 N_b :1s     0.0017  -0.0000   0.1054  -0.0092   0.0000  -0.0000   0.0000
1046 N_b :1s    -0.0117  -0.0000   0.1768   0.0705   0.0000  -0.0000   0.0000
1047 N_b :2px    0.0056  -0.0000  -0.2143  -0.0048   0.0000  -0.0000   0.0000
1048 N_b :2py    0.0012  -0.0000   0.1738   0.1268  -0.0000  -0.0000  -0.0000
1049 N_b :2pz   -0.0000   0.0317  -0.0000   0.0000  -0.0332   0.0090  -0.0253
1053 N_b :2px   -0.0005  -0.0000   0.0041   0.0185  -0.0000   0.0000  -0.0000
1054 N_b :2py    0.0005  -0.0000  -0.0156   0.0025  -0.0000   0.0000  -0.0000
1056 N_b :2px    0.0078  -0.0000  -0.0845   0.0170  -0.0000   0.0000  -0.0000
1057 N_b :2py   -0.0089  -0.0000   0.0753   0.0636  -0.0000   0.0000  -0.0000
1058 N_b :2pz   -0.0000  -0.0112  -0.0000   0.0000   0.0104  -0.0019   0.0131
1059 N_b :2px    0.0050  -0.0000  -0.0576  -0.0498  -0.0000  -0.0000  -0.0000
1060 N_b :2py   -0.0067  -0.0000   0.0795  -0.0477  -0.0000   0.0000  -0.0000
1067 N_b :3d2-   0.0015   0.0000  -0.0322  -0.0113  -0.0000   0.0000  -0.0000
1068 N_b :3d1-   0.0000  -0.0029   0.0000  -0.0000   0.0041  -0.0214   0.0029
1070 N_b :3d1+  -0.0000   0.0022  -0.0000   0.0000  -0.0029  -0.0212  -0.0064
1071 N_b :3d2+   0.0009  -0.0000  -0.0083   0.0242  -0.0000   0.0000  -0.0000
1072 N_b :3d2-   0.0008  -0.0000  -0.0375  -0.0090   0.0000   0.0000   0.0000
1073 N_b :3d1-   0.0000  -0.0036   0.0000  -0.0000   0.0052  -0.0252   0.0046
1075 N_b :3d1+  -0.0000   0.0035  -0.0000   0.0000  -0.0043  -0.0239  -0.0089
1076 N_b :3d2+  -0.0003  -0.0000   0.0167  -0.0156   0.0000   0.0000  -0.0000
1077 N_b :3d2-  -0.0019  -0.0000   0.0096   0.0101   0.0000  -0.0000   0.0000
1078 N_b :3d1-  -0.0000  -0.0001  -0.0000   0.0000   0.0003   0.0142   0.0031
1080 N_b :3d1+   0.0000  -0.0005  -0.0000  -0.0000   0.0002   0.0103   0.0004
1081 N_b :3d2+  -0.0006   0.0000   0.0296  -0.1153   0.0000  -0.0000   0.0000
1122 O_a :1s    -0.0000   0.0000   0.0109   0.0053  -0.0000   0.0000  -0.0000
1125 O_a :1s    -0.0012   0.0000   0.0141   0.0223  -0.0000  -0.0000  -0.0000
1126 O_a :1s     0.0019   0.0000  -0.0417   0.1178  -0.0000   0.0000  -0.0000
1127 O_a :2px   -0.0157  -0.0000   0.3334   0.1742  -0.0000   0.0000   0.0000
1128 O_a :2py    0.0056  -0.0000  -0.2300  -0.8000   0.0000   0.0000   0.0000
1129 O_a :2pz    0.0000   0.0510   0.0000  -0.0000  -0.0612  -0.6397  -0.1520
1135 O_a :2pz   -0.0000   0.0005   0.0000   0.0000  -0.0005  -0.0104  -0.0021
1136 O_a :2px   -0.0009  -0.0000   0.0210   0.0390   0.0000   0.0000   0.0000
1137 O_a :2py    0.0031   0.0000  -0.0426  -0.1039   0.0000   0.0000   0.0000
1138 O_a :2pz    0.0000   0.0062   0.0000  -0.0000  -0.0069  -0.0686  -0.0180
1139 O_a :2px   -0.0015  -0.0000   0.0263  -0.0047   0.0000   0.0000   0.0000
1140 O_a :2py    0.0018  -0.0000  -0.0266  -0.0506   0.0000  -0.0000   0.0000
1141 O_a :2pz    0.0000   0.0008   0.0000  -0.0000  -0.0039  -0.0358  -0.0086
1152 O_a :3d2-  -0.0001   0.0000   0.0005   0.0195  -0.0000  -0.0000  -0.0000
1155 O_a :3d1+  -0.0000  -0.0019  -0.0000   0.0000   0.0019   0.0213   0.0047
1156 O_a :3d2+   0.0007   0.0000  -0.0097  -0.0101   0.0000  -0.0000  -0.0000
1157 O_a :3d2-  -0.0009  -0.0000   0.0103   0.0247   0.0000  -0.0000  -0.0000
1160 O_a :3d1+  -0.0000  -0.0021  -0.0000   0.0000   0.0026   0.0181   0.0052
1161 O_a :3d2+   0.0011   0.0000  -0.0122  -0.0151  -0.0000  -0.0000   0.0000
1205 O_b :1s    -0.0029  -0.0000   0.0370   0.0014  -0.0000   0.0000  -0.0000
1206 O_b :1s    -0.0011   0.0000   0.0353  -0.1181  -0.0000   0.0000  -0.0000
1207 O_b :2px   -0.0418   0.0000   0.6690  -0.4928   0.0000   0.0000  -0.0000
1208 O_b :2py    0.0143  -0.0000  -0.3819  -0.0677  -0.0000   0.0000  -0.0000
1209 O_b :2pz    0.0000   0.0635   0.0000  -0.0000  -0.0886   0.6476  -0.0349
1215 O_b :2pz   -0.0000   0.0010  -0.0000   0.0000  -0.0012   0.0105  -0.0003
1216 O_b :2px   -0.0060   0.0000   0.0815  -0.0442   0.0000   0.0000  -0.0000
1217 O_b :2py    0.0004  -0.0000  -0.0314   0.0228  -0.0000   0.0000  -0.0000
1218 O_b :2pz    0.0000   0.0065   0.0000  -0.0000  -0.0075   0.0709  -0.0017
1219 O_b :2px   -0.0037   0.0000   0.0489  -0.0334   0.0000   0.0000  -0.0000
1220 O_b :2py    0.0012   0.0000  -0.0182  -0.0130  -0.0000   0.0000  -0.0000
1221 O_b :2pz    0.0000   0.0020   0.0000  -0.0000  -0.0042   0.0343  -0.0010
1232 O_b :3d2-  -0.0011  -0.0000   0.0110  -0.0133   0.0000   0.0000  -0.0000
1233 O_b :3d1-   0.0000   0.0025   0.0000  -0.0000  -0.0030   0.0223  -0.0007
1236 O_b :3d2+  -0.0008   0.0000   0.0144  -0.0014   0.0000  -0.0000   0.0000
1237 O_b :3d2-  -0.0018   0.0000   0.0197  -0.0101   0.0000   0.0000  -0.0000
1238 O_b :3d1-   0.0000   0.0023   0.0000  -0.0000  -0.0025   0.0193  -0.0005
1241 O_b :3d2+  -0.0008   0.0000   0.0187  -0.0048   0.0000  -0.0000   0.0000
1281 H_a :1s    -0.0540  -0.0000  -0.0005   0.0000  -0.0000  -0.0000   0.0000
1284 H_a :1s    -0.0182   0.0000  -0.0153  -0.0057   0.0000  -0.0000  -0.0000
1327 H_b :1s    -0.1680  -0.0000  -0.0012   0.0002  -0.0000  -0.0000   0.0000
1330 H_b :1s     0.0008   0.0000  -0.0175   0.0155   0.0000   0.0000  -0.0000
1343 H_b :2pz   -0.0000   0.0112  -0.0000   0.0000  -0.0001  -0.0000   0.0017
1373 H_c :1s    -0.2987  -0.0000  -0.0036   0.0001  -0.0000  -0.0000   0.0000
1375 H_c :1s     0.0128  -0.0000   0.0003   0.0057  -0.0000  -0.0000   0.0000
1376 H_c :1s     0.0661   0.0000  -0.0556  -0.0129   0.0000   0.0000  -0.0000
1377 H_c :1s    -0.0041   0.0000   0.0003   0.0154   0.0000   0.0000  -0.0000
1384 H_c :2px    0.0111   0.0000  -0.0014  -0.0022   0.0000   0.0000  -0.0000
1387 H_c :2px   -0.0056  -0.0000   0.0103   0.0008  -0.0000  -0.0000   0.0000
1419 H_d :1s    -0.3978  -0.0000  -0.0043  -0.0002  -0.0000  -0.0000   0.0000
1420 H_d :1s     0.0125   0.0000   0.0004   0.0000   0.0000   0.0000  -0.0000
1421 H_d :1s     0.0350  -0.0000   0.0163   0.0168  -0.0000  -0.0000   0.0000
1422 H_d :1s     0.1146   0.0000   0.0478   0.0353   0.0000   0.0000   0.0000
1423 H_d :1s     0.0042  -0.0000   0.0221  -0.0016   0.0000   0.0000  -0.0000
1430 H_d :2px   -0.0113  -0.0000   0.0026   0.0033  -0.0000  -0.0000   0.0000
1433 H_d :2px    0.0155   0.0000   0.0006   0.0037   0.0000   0.0000  -0.0000
1434 H_d :2py   -0.0009  -0.0000   0.0166   0.0002   0.0000   0.0000  -0.0000
1465 H_e :1s    -0.3962  -0.0000  -0.0076  -0.0006  -0.0000  -0.0000   0.0000
1466 H_e :1s     0.0120   0.0000   0.0005  -0.0001   0.0000   0.0000  -0.0000
1467 H_e :1s     0.0326  -0.0000   0.0019  -0.0102  -0.0000  -0.0000   0.0000
1468 H_e :1s     0.0980   0.0000  -0.0165  -0.0232   0.0000   0.0000  -0.0000
1469 H_e :1s     0.0070  -0.0000   0.0173  -0.0152   0.0000   0.0000   0.0000
1476 H_e :2px    0.0109   0.0000  -0.0008   0.0021   0.0000   0.0000  -0.0000
1479 H_e :2px   -0.0119  -0.0000   0.0037   0.0019  -0.0000  -0.0000   0.0000
1480 H_e :2py   -0.0040   0.0000  -0.0244  -0.0028   0.0000   0.0000   0.0000
1511 H_f :1s    -0.3550  -0.0000  -0.0083  -0.0014  -0.0000  -0.0000   0.0000
1512 H_f :1s     0.0110   0.0000   0.0006  -0.0000   0.0000   0.0000  -0.0000
1513 H_f :1s     0.0310  -0.0000  -0.0000  -0.0196  -0.0000  -0.0000   0.0000
1514 H_f :1s     0.0725   0.0000   0.0121  -0.0004   0.0000   0.0000  -0.0000
1515 H_f :1s     0.0008   0.0000  -0.0315  -0.0054  -0.0000  -0.0000   0.0000
1526 H_f :2py    0.0080  -0.0000   0.0248  -0.0014   0.0000   0.0000  -0.0000
1557 H_g :1s    -0.2488  -0.0000  -0.0135   0.0002  -0.0000  -0.0000   0.0000
1559 H_g :1s     0.0131  -0.0000   0.0265   0.0087  -0.0000  -0.0000   0.0000
1560 H_g :1s     0.0463   0.0000   0.0546   0.0180   0.0000   0.0000   0.0000
1561 H_g :1s    -0.0044   0.0000  -0.0268   0.0223   0.0000  -0.0000  -0.0000
1572 H_g :2py    0.0027   0.0000  -0.0307  -0.0056   0.0000   0.0000   0.0000
1573 H_g :2pz    0.0000   0.0046   0.0000   0.0000  -0.0016   0.0012  -0.0130
1603 H_h :1s    -0.1692  -0.0000  -0.0117   0.0079  -0.0000  -0.0000   0.0000
1606 H_h :1s     0.0278  -0.0000   0.0005  -0.0656   0.0000   0.0000  -0.0000
1607 H_h :1s     0.0006  -0.0000   0.0332   0.0066   0.0000   0.0000  -0.0000
1618 H_h :2py    0.0119  -0.0000   0.0215  -0.0127   0.0000   0.0000  -0.0000
1619 H_h :2pz   -0.0000   0.0038  -0.0000   0.0000   0.0027  -0.0015  -0.0128
1649 H_i :1s    -0.0858  -0.0000  -0.0152   0.0302  -0.0000  -0.0000   0.0000
1651 H_i :1s    -0.0088  -0.0000  -0.0130  -0.0361  -0.0000  -0.0000   0.0000
1652 H_i :1s     0.0035   0.0000  -0.0308  -0.0742   0.0000   0.0000  -0.0000
1653 H_i :1s     0.0027  -0.0000   0.0419  -0.0216   0.0000   0.0000   0.0000
1664 H_i :2py    0.0056   0.0000  -0.0402   0.0123   0.0000   0.0000   0.0000
1695 H_j :1s    -0.0445  -0.0000  -0.0005   0.0630  -0.0000   0.0000   0.0000
1697 H_j :1s    -0.0129  -0.0000  -0.0033  -0.0067  -0.0000  -0.0000   0.0000
1698 H_j :1s    -0.0138  -0.0000   0.0678   0.0748   0.0000  -0.0000   0.0000
1709 H_j :2px   -0.0060  -0.0000  -0.0079   0.0116  -0.0000  -0.0000   0.0000
1710 H_j :2py    0.0067  -0.0000   0.0403   0.0160   0.0000   0.0000  -0.0000
1741 H_k :1s    -0.0102   0.0000  -0.0209   0.0511   0.0000   0.0000  -0.0000
1743 H_k :1s    -0.0088  -0.0000  -0.0279  -0.0315  -0.0000  -0.0000   0.0000
1744 H_k :1s    -0.0151  -0.0000  -0.0014   0.0478  -0.0000  -0.0000   0.0000
1745 H_k :1s     0.0022   0.0000  -0.0292  -0.0040  -0.0000  -0.0000  -0.0000
1753 H_k :2py   -0.0008  -0.0000   0.0051   0.0138   0.0000  -0.0000   0.0000
1755 H_k :2px    0.0018   0.0000   0.0191  -0.0132   0.0000   0.0000  -0.0000
1756 H_k :2py    0.0053  -0.0000  -0.0341   0.0245   0.0000   0.0000   0.0000
1757 H_k :2pz    0.0000   0.0116   0.0000  -0.0000   0.0044   0.0031   0.0005
1787 H_l :1s     0.0008  -0.0000  -0.0752  -0.1487   0.0000   0.0000  -0.0000
1789 H_l :1s    -0.0061  -0.0000  -0.0136   0.0189  -0.0000   0.0000  -0.0000
1790 H_l :1s     0.0126   0.0000  -0.1233  -0.1143  -0.0000   0.0000  -0.0000
1791 H_l :1s     0.0030   0.0000  -0.0189   0.0135  -0.0000   0.0000  -0.0000
1801 H_l :2px   -0.0014   0.0000  -0.0120  -0.0326  -0.0000   0.0000  -0.0000
1802 H_l :2py    0.0049  -0.0000  -0.0070   0.0123  -0.0000   0.0000   0.0000
1803 H_l :2pz    0.0000   0.0090   0.0000  -0.0000   0.0045  -0.0104   0.0015
1879 H_n :1s    -0.0187   0.0000  -0.0016   0.0001  -0.0000  -0.0000   0.0000
1882 H_n :1s     0.0185   0.0000  -0.0090  -0.0083   0.0000   0.0000  -0.0000

    Orbital        56       57       58       59       60       61       62
   2 C_a :1s    -0.0000   0.0000   0.0000   0.0205  -0.0000  -0.0331  -0.0014
   4 C_a :1s    -0.0000   0.0000   0.0000   0.0752  -0.0000   0.0762   0.4816
   5 C_a :1s     0.0000  -0.0000  -0.0000  -2.2947   0.0000  -0.8316  -0.8848
   6 C_a :1s     0.0000  -0.0000  -0.0000  -3.7043   0.0000  22.3528 -12.7125
   7 C_a :2px    0.0000  -0.0000  -0.0000   0.0559   0.0000  -0.0347  -0.0026
   8 C_a :2py    0.0000  -0.0000  -0.0000  -0.0121   0.0000  -0.0132  -0.0114
[...]
      ----------------------------------------------------------------
         1    4.21470D-02  0.00D+00  4.21D-02  5.30D+01    0.00000D+00
         2    4.41591D-02  0.00D+00  4.42D-02  5.51D+01    2.01000D-02
         3    5.12098D-02  0.00D+00  5.12D-02  6.23D+01    4.02000D-02

 *** THE REQUESTED    3 SOLUTION VECTORS CONVERGED

 Convergence of RSP solution vectors, threshold = 1.00D-03
 ---------------------------------------------------------------
 (dimension of paired reduced space:   42)
 RSP solution vector no.    1; norm of residual   7.96D-04
 RSP solution vector no.    2; norm of residual   8.01D-04
 RSP solution vector no.    3; norm of residual   8.22D-04

 *** RSPCTL MICROITERATIONS CONVERGED

@ QRLRVE: SINGLET SOLUTION FOR SYMMETRY    1  ( A  )    LABEL   YDIPLEN     FREQUENCY   0.000000D+00

@ QRLRVE:  << XDIPLEN  ; YDIPLEN  >> (   0.00000):    -96.1831940430    

@ QRLRVE:  << YDIPLEN  ; YDIPLEN  >> (   0.00000):     768.167977366    

@ QRLRVE:  << ZDIPLEN  ; YDIPLEN  >> (   0.00000):   -2.076330403359E-13

@ QRLRVE: SINGLET SOLUTION FOR SYMMETRY    1  ( A  )    LABEL   YDIPLEN     FREQUENCY   0.201000D-01

@ QRLRVE:  << XDIPLEN  ; YDIPLEN  >> (   0.02010):    -98.9971166174    

@ QRLRVE:  << YDIPLEN  ; YDIPLEN  >> (   0.02010):     786.106617259    

@ QRLRVE:  << ZDIPLEN  ; YDIPLEN  >> (   0.02010):   -2.074751113327E-13

@ QRLRVE: SINGLET SOLUTION FOR SYMMETRY    1  ( A  )    LABEL   YDIPLEN     FREQUENCY   0.402000D-01

@ QRLRVE:  << XDIPLEN  ; YDIPLEN  >> (   0.04020):    -108.509953290    

@ QRLRVE:  << YDIPLEN  ; YDIPLEN  >> (   0.04020):     846.556495386    

@ QRLRVE:  << ZDIPLEN  ; YDIPLEN  >> (   0.04020):   -2.068562460615E-13


 QRLRVE -- linear response calculation for symmetry  1  ( A  )
 QRLRVE -- operator label : ZDIPLEN 
 QRLRVE -- operator spin  :   0
 QRLRVE -- frequencies :  0.000000  0.020100  0.040200



 ---  SOLVING SETS OF LINEAR EQUATIONS FOR LINEAR RESPONSE PROPERTIES ---

 Operator symmetry = 1  ( A  ); triplet =   F


 ** RSPCTL MICROITERATION NUMBER    1

       No.  Residual tot.,    conf., and orb.    Bnorm      Frequency 
      ----------------------------------------------------------------
         1    3.31609D+00  0.00D+00  3.32D+00  8.07D+00    0.00000D+00
         2    3.31904D+00  0.00D+00  3.32D+00  8.10D+00    2.01000D-02
         3    3.32797D+00  0.00D+00  3.33D+00  8.18D+00    4.02000D-02

 ** RSPCTL MICROITERATION NUMBER    2

       No.  Residual tot.,    conf., and orb.    Bnorm      Frequency 
      ----------------------------------------------------------------
         1    8.65027D-01  0.00D+00  8.65D-01  8.47D+00    0.00000D+00
         2    8.67239D-01  0.00D+00  8.67D-01  8.50D+00    2.01000D-02
         3    8.73964D-01  0.00D+00  8.74D-01  8.58D+00    4.02000D-02

 ** RSPCTL MICROITERATION NUMBER    3

       No.  Residual tot.,    conf., and orb.    Bnorm      Frequency 
      ----------------------------------------------------------------
         1    1.76832D-01  0.00D+00  1.77D-01  8.50D+00    0.00000D+00
         2    1.78072D-01  0.00D+00  1.78D-01  8.53D+00    2.01000D-02
         3    1.81867D-01  0.00D+00  1.82D-01  8.62D+00    4.02000D-02

 ** RSPCTL MICROITERATION NUMBER    4

       No.  Residual tot.,    conf., and orb.    Bnorm      Frequency 
      ----------------------------------------------------------------
         1    5.07220D-02  0.00D+00  5.07D-02  8.50D+00    0.00000D+00
         2    5.15840D-02  0.00D+00  5.16D-02  8.53D+00    2.01000D-02
         3    5.43032D-02  0.00D+00  5.43D-02  8.62D+00    4.02000D-02

 ** RSPCTL MICROITERATION NUMBER    5

       No.  Residual tot.,    conf., and orb.    Bnorm      Frequency 
      ----------------------------------------------------------------
         1    1.89632D-02  0.00D+00  1.90D-02  8.50D+00    0.00000D+00
         2    1.95812D-02  0.00D+00  1.96D-02  8.53D+00    2.01000D-02
         3    2.15446D-02  0.00D+00  2.15D-02  8.63D+00    4.02000D-02

 ** RSPCTL MICROITERATION NUMBER    6

       No.  Residual tot.,    conf., and orb.    Bnorm      Frequency 
      ----------------------------------------------------------------
         1    7.59449D-03  0.00D+00  7.59D-03  8.50D+00    0.00000D+00
         2    7.93641D-03  0.00D+00  7.94D-03  8.53D+00    2.01000D-02
         3    9.04024D-03  0.00D+00  9.04D-03  8.63D+00    4.02000D-02

 ** RSPCTL MICROITERATION NUMBER    7

       No.  Residual tot.,    conf., and orb.    Bnorm      Frequency 
      ----------------------------------------------------------------
         1    2.01020D-03  0.00D+00  2.01D-03  8.50D+00    0.00000D+00
         2    2.11740D-03  0.00D+00  2.12D-03  8.53D+00    2.01000D-02
         3    2.51381D-03  0.00D+00  2.51D-03  8.63D+00    4.02000D-02

 *** THE REQUESTED    3 SOLUTION VECTORS CONVERGED

 Convergence of RSP solution vectors, threshold = 1.00D-03
 ---------------------------------------------------------------
 (dimension of paired reduced space:   38)
 RSP solution vector no.    1; norm of residual   2.36D-04
 RSP solution vector no.    2; norm of residual   2.48D-04
 RSP solution vector no.    3; norm of residual   2.91D-04

 *** RSPCTL MICROITERATIONS CONVERGED

@ QRLRVE: SINGLET SOLUTION FOR SYMMETRY    1  ( A  )    LABEL   ZDIPLEN     FREQUENCY   0.000000D+00

@ QRLRVE:  << XDIPLEN  ; ZDIPLEN  >> (   0.00000):   -7.965808504264E-14

@ QRLRVE:  << YDIPLEN  ; ZDIPLEN  >> (   0.00000):   -2.715411377178E-13

@ QRLRVE:  << ZDIPLEN  ; ZDIPLEN  >> (   0.00000):     104.002997713    

@ QRLRVE: SINGLET SOLUTION FOR SYMMETRY    1  ( A  )    LABEL   ZDIPLEN     FREQUENCY   0.201000D-01

@ QRLRVE:  << XDIPLEN  ; ZDIPLEN  >> (   0.02010):   -8.438613156227E-14

@ QRLRVE:  << YDIPLEN  ; ZDIPLEN  >> (   0.02010):   -2.750377094892E-13

@ QRLRVE:  << ZDIPLEN  ; ZDIPLEN  >> (   0.02010):     104.150146061    

@ QRLRVE: SINGLET SOLUTION FOR SYMMETRY    1  ( A  )    LABEL   ZDIPLEN     FREQUENCY   0.402000D-01

@ QRLRVE:  << XDIPLEN  ; ZDIPLEN  >> (   0.04020):   -9.983583049617E-14

@ QRLRVE:  << YDIPLEN  ; ZDIPLEN  >> (   0.04020):   -2.855389008250E-13

@ QRLRVE:  << ZDIPLEN  ; ZDIPLEN  >> (   0.04020):     104.596224001    
 
 ======================================================================
 ---  L I N E A R   R E S P O N S E   F U N C T I O N S --- 
 ======================================================================

 The -<<A;B>>(omega_b) functions from vectors generated
 in a *QUADRA calculation of <<A;B,C>>(omega_b,omega_c)

 Note: the accuracy of off-diagonal elements will be linear
 in the convergence threshold THCLR =  1.00D-03


 Perturbation symmetry.     KSYMOP:           1
 Perturbation spin symmetry.TRPLET:           F
 Orbital variables.         KZWOPT:      107242
 Configuration variables.   KZCONF:           0
 Total number of variables. KZVAR :      107242

@ Singlet linear response function in a.u.

@ A operator, symmetry, frequency:   XDIPLEN    1 -0.000000
@ B operator, symmetry, frequency:   XDIPLEN    1  0.000000

@ Value of linear response -<<A;B>>(omega):     160.931948603344

@ Singlet linear response function in a.u.

@ A operator, symmetry, frequency:   YDIPLEN    1 -0.000000
@ B operator, symmetry, frequency:   XDIPLEN    1  0.000000

@ Value of linear response -<<A;B>>(omega):     -96.194250517238

@ Singlet linear response function in a.u.

@ A operator, symmetry, frequency:   ZDIPLEN    1 -0.000000
@ B operator, symmetry, frequency:   XDIPLEN    1  0.000000

@ Value of linear response -<<A;B>>(omega):      -0.000000000000

@ Singlet linear response function in a.u.

@ A operator, symmetry, frequency:   XDIPLEN    1 -0.020100
@ B operator, symmetry, frequency:   XDIPLEN    1  0.020100

@ Value of linear response -<<A;B>>(omega):     161.629507311154

@ Singlet linear response function in a.u.

@ A operator, symmetry, frequency:   YDIPLEN    1 -0.020100
@ B operator, symmetry, frequency:   XDIPLEN    1  0.020100

@ Value of linear response -<<A;B>>(omega):     -99.009037354343

@ Singlet linear response function in a.u.

@ A operator, symmetry, frequency:   ZDIPLEN    1 -0.020100
@ B operator, symmetry, frequency:   XDIPLEN    1  0.020100

@ Value of linear response -<<A;B>>(omega):      -0.000000000000

@ Singlet linear response function in a.u.

@ A operator, symmetry, frequency:   XDIPLEN    1 -0.000000
@ B operator, symmetry, frequency:   YDIPLEN    1  0.000000

@ Value of linear response -<<A;B>>(omega):     -96.183194042988

@ Singlet linear response function in a.u.

@ A operator, symmetry, frequency:   YDIPLEN    1 -0.000000
@ B operator, symmetry, frequency:   YDIPLEN    1  0.000000

@ Value of linear response -<<A;B>>(omega):     768.167977366468

@ Singlet linear response function in a.u.

@ A operator, symmetry, frequency:   ZDIPLEN    1 -0.000000
@ B operator, symmetry, frequency:   YDIPLEN    1  0.000000

@ Value of linear response -<<A;B>>(omega):      -0.000000000000

@ Singlet linear response function in a.u.

@ A operator, symmetry, frequency:   XDIPLEN    1 -0.020100
@ B operator, symmetry, frequency:   YDIPLEN    1  0.020100

@ Value of linear response -<<A;B>>(omega):     -98.997116617353

@ Singlet linear response function in a.u.

@ A operator, symmetry, frequency:   YDIPLEN    1 -0.020100
@ B operator, symmetry, frequency:   YDIPLEN    1  0.020100

@ Value of linear response -<<A;B>>(omega):     786.106617259217

@ Singlet linear response function in a.u.

@ A operator, symmetry, frequency:   ZDIPLEN    1 -0.020100
@ B operator, symmetry, frequency:   YDIPLEN    1  0.020100

@ Value of linear response -<<A;B>>(omega):      -0.000000000000

@ Singlet linear response function in a.u.

@ A operator, symmetry, frequency:   XDIPLEN    1 -0.000000
@ B operator, symmetry, frequency:   ZDIPLEN    1  0.000000

@ Value of linear response -<<A;B>>(omega):      -0.000000000000

@ Singlet linear response function in a.u.

@ A operator, symmetry, frequency:   YDIPLEN    1 -0.000000
@ B operator, symmetry, frequency:   ZDIPLEN    1  0.000000

@ Value of linear response -<<A;B>>(omega):      -0.000000000000

@ Singlet linear response function in a.u.

@ A operator, symmetry, frequency:   ZDIPLEN    1 -0.000000
@ B operator, symmetry, frequency:   ZDIPLEN    1  0.000000

@ Value of linear response -<<A;B>>(omega):     104.002997712749

@ Singlet linear response function in a.u.

@ A operator, symmetry, frequency:   XDIPLEN    1 -0.020100
@ B operator, symmetry, frequency:   ZDIPLEN    1  0.020100

@ Value of linear response -<<A;B>>(omega):      -0.000000000000

@ Singlet linear response function in a.u.

@ A operator, symmetry, frequency:   YDIPLEN    1 -0.020100
@ B operator, symmetry, frequency:   ZDIPLEN    1  0.020100

@ Value of linear response -<<A;B>>(omega):      -0.000000000000

@ Singlet linear response function in a.u.

@ A operator, symmetry, frequency:   ZDIPLEN    1 -0.020100
@ B operator, symmetry, frequency:   ZDIPLEN    1  0.020100

@ Value of linear response -<<A;B>>(omega):     104.150146061404


  Results from quadratic response calculation
 --------------------------------------------

@ B-freq = 0.000000  C-freq = 0.000000     beta(X;X,X) =   -504.54768860
@ B-freq = 0.000000  C-freq = 0.000000     beta(Y;X,X) =   2094.04739771
@ B-freq = 0.000000  C-freq = 0.000000     beta(Z;X,X) =     -0.00000000
@ B-freq = 0.020100  C-freq = 0.000000     beta(X;X,X) =   -527.48534197
@ B-freq = 0.020100  C-freq = 0.000000     beta(Y;X,X) =   2197.92107054
@ B-freq = 0.020100  C-freq = 0.000000     beta(Z;X,X) =     -0.00000000
@ B-freq = 0.000000  C-freq = 0.000000     beta(X;Y,X) = beta(Y,X,X)
@ B-freq = 0.000000  C-freq = 0.000000     beta(X;Y,X) =   2094.04754251
@ B-freq = 0.000000  C-freq = 0.000000     beta(Y;Y,X) =  -7150.57673549
@ B-freq = 0.000000  C-freq = 0.000000     beta(Z;Y,X) =     -0.00000000
@ B-freq = 0.020100  C-freq = 0.000000     beta(X;Y,X) =   2197.92122293
@ B-freq = 0.020100  C-freq = 0.000000     beta(Y;Y,X) =  -7590.55773977
@ B-freq = 0.020100  C-freq = 0.000000     beta(Z;Y,X) =     -0.00000000
@ B-freq = 0.000000  C-freq = 0.000000     beta(X;Z,X) = beta(Z,X,X)
@ B-freq = 0.000000  C-freq = 0.000000     beta(Y;Z,X) = beta(Z,Y,X)
@ B-freq = 0.000000  C-freq = 0.000000     beta(X;Z,X) =     -0.00000000
@ B-freq = 0.000000  C-freq = 0.000000     beta(Y;Z,X) =     -0.00000000
@ B-freq = 0.000000  C-freq = 0.000000     beta(Z;Z,X) =     13.61177580
@ B-freq = 0.020100  C-freq = 0.000000     beta(X;Z,X) =     -0.00000000
@ B-freq = 0.020100  C-freq = 0.000000     beta(Y;Z,X) =     -0.00000000
@ B-freq = 0.020100  C-freq = 0.000000     beta(Z;Z,X) =     13.76455388
@ B-freq = 0.000000  C-freq = 0.020100     beta(X;X,X) = beta(X,X,X)
@ B-freq = 0.000000  C-freq = 0.020100     beta(Y;X,X) = beta(Y,X,X)
@ B-freq = 0.000000  C-freq = 0.020100     beta(Z;X,X) = beta(Z,X,X)
@ B-freq = 0.020100  C-freq = 0.020100     beta(X;X,X) =   -578.91111755
@ B-freq = 0.020100  C-freq = 0.020100     beta(Y;X,X) =   2460.95246811
@ B-freq = 0.020100  C-freq = 0.020100     beta(Z;X,X) =     -0.00000000
@ B-freq = 0.000000  C-freq = 0.020100     beta(X;Y,X) =   2173.79293816
@ B-freq = 0.000000  C-freq = 0.020100     beta(Y;Y,X) =  -7480.65294703
@ B-freq = 0.000000  C-freq = 0.020100     beta(Z;Y,X) =     -0.00000000
@ B-freq = 0.020100  C-freq = 0.020100     beta(X;Y,X) =   2378.14654454
@ B-freq = 0.020100  C-freq = 0.020100     beta(Y;Y,X) =  -8474.38341797
@ B-freq = 0.020100  C-freq = 0.020100     beta(Z;Y,X) =     -0.00000000
@ B-freq = 0.000000  C-freq = 0.020100     beta(X;Z,X) =     -0.00000000
@ B-freq = 0.000000  C-freq = 0.020100     beta(Y;Z,X) =     -0.00000000
@ B-freq = 0.000000  C-freq = 0.020100     beta(Z;Z,X) =     13.78992258
@ B-freq = 0.020100  C-freq = 0.020100     beta(X;Z,X) =     -0.00000000
@ B-freq = 0.020100  C-freq = 0.020100     beta(Y;Z,X) =     -0.00000000
@ B-freq = 0.020100  C-freq = 0.020100     beta(Z;Z,X) =     14.10831705
@ B-freq = 0.000000  C-freq = 0.000000     beta(X;X,Y) = beta(Y,X,X)
@ B-freq = 0.000000  C-freq = 0.000000     beta(Y;X,Y) = beta(Y,Y,X)
@ B-freq = 0.000000  C-freq = 0.000000     beta(Z;X,Y) = beta(Z,Y,X)
@ B-freq = 0.020100  C-freq = 0.000000     beta(X;X,Y) = beta(X,Y,X)
@ B-freq = 0.020100  C-freq = 0.000000     beta(Y;X,Y) = beta(Y,Y,X)
@ B-freq = 0.020100  C-freq = 0.000000     beta(Z;X,Y) = beta(Z,Y,X)
@ B-freq = 0.000000  C-freq = 0.000000     beta(X;Y,Y) = beta(Y,Y,X)
@ B-freq = 0.000000  C-freq = 0.000000     beta(X;Y,Y) =  -7150.57771804
@ B-freq = 0.000000  C-freq = 0.000000     beta(Y;Y,Y) =  18793.96998328
@ B-freq = 0.000000  C-freq = 0.000000     beta(Z;Y,Y) =      0.00000000
@ B-freq = 0.020100  C-freq = 0.000000     beta(X;Y,Y) =  -7480.65398221
@ B-freq = 0.020100  C-freq = 0.000000     beta(Y;Y,Y) =  19988.41508160
@ B-freq = 0.020100  C-freq = 0.000000     beta(Z;Y,Y) =      0.00000000
@ B-freq = 0.000000  C-freq = 0.000000     beta(X;Z,Y) = beta(Z,Y,X)
@ B-freq = 0.000000  C-freq = 0.000000     beta(Y;Z,Y) = beta(Z,Y,Y)
@ B-freq = 0.000000  C-freq = 0.000000     beta(X;Z,Y) =     -0.00000000
@ B-freq = 0.000000  C-freq = 0.000000     beta(Y;Z,Y) =      0.00000000
@ B-freq = 0.000000  C-freq = 0.000000     beta(Z;Z,Y) =    -39.93838262
@ B-freq = 0.020100  C-freq = 0.000000     beta(X;Z,Y) =     -0.00000000
@ B-freq = 0.020100  C-freq = 0.000000     beta(Y;Z,Y) =      0.00000000
@ B-freq = 0.020100  C-freq = 0.000000     beta(Z;Z,Y) =    -40.65168310
@ B-freq = 0.000000  C-freq = 0.020100     beta(X;X,Y) = beta(X,Y,X)
@ B-freq = 0.000000  C-freq = 0.020100     beta(Y;X,Y) = beta(Y,Y,X)
@ B-freq = 0.000000  C-freq = 0.020100     beta(Z;X,Y) = beta(Z,Y,X)
@ B-freq = 0.020100  C-freq = 0.020100     beta(X;X,Y) = beta(X,Y,X)
@ B-freq = 0.020100  C-freq = 0.020100     beta(Y;X,Y) = beta(Y,Y,X)
@ B-freq = 0.020100  C-freq = 0.020100     beta(Z;X,Y) = beta(Z,Y,X)
@ B-freq = 0.000000  C-freq = 0.020100     beta(X;Y,Y) = beta(X,Y,Y)
@ B-freq = 0.000000  C-freq = 0.020100     beta(Y;Y,Y) = beta(Y,Y,Y)
@ B-freq = 0.000000  C-freq = 0.020100     beta(Z;Y,Y) = beta(Z,Y,Y)
@ B-freq = 0.020100  C-freq = 0.020100     beta(X;Y,Y) =  -8098.48996162
@ B-freq = 0.020100  C-freq = 0.020100     beta(Y;Y,Y) =  22728.88955278
@ B-freq = 0.020100  C-freq = 0.020100     beta(Z;Y,Y) =      0.00000000
@ B-freq = 0.000000  C-freq = 0.020100     beta(X;Z,Y) =     -0.00000000
@ B-freq = 0.000000  C-freq = 0.020100     beta(Y;Z,Y) =      0.00000000
@ B-freq = 0.000000  C-freq = 0.020100     beta(Z;Z,Y) =    -40.83854072
@ B-freq = 0.020100  C-freq = 0.020100     beta(X;Z,Y) =     -0.00000000
@ B-freq = 0.020100  C-freq = 0.020100     beta(Y;Z,Y) =      0.00000000
@ B-freq = 0.020100  C-freq = 0.020100     beta(Z;Z,Y) =    -42.34131990
@ B-freq = 0.000000  C-freq = 0.000000     beta(X;X,Z) = beta(Z,X,X)
@ B-freq = 0.000000  C-freq = 0.000000     beta(Y;X,Z) = beta(Z,Y,X)
@ B-freq = 0.000000  C-freq = 0.000000     beta(Z;X,Z) = beta(Z,Z,X)
@ B-freq = 0.020100  C-freq = 0.000000     beta(X;X,Z) = beta(X,Z,X)
@ B-freq = 0.020100  C-freq = 0.000000     beta(Y;X,Z) = beta(Y,Z,X)
@ B-freq = 0.020100  C-freq = 0.000000     beta(Z;X,Z) = beta(Z,Z,X)
@ B-freq = 0.000000  C-freq = 0.000000     beta(X;Y,Z) = beta(Z,Y,X)
@ B-freq = 0.000000  C-freq = 0.000000     beta(Y;Y,Z) = beta(Z,Y,Y)
@ B-freq = 0.000000  C-freq = 0.000000     beta(Z;Y,Z) = beta(Z,Z,Y)
@ B-freq = 0.020100  C-freq = 0.000000     beta(X;Y,Z) = beta(X,Z,Y)
@ B-freq = 0.020100  C-freq = 0.000000     beta(Y;Y,Z) = beta(Y,Z,Y)
@ B-freq = 0.020100  C-freq = 0.000000     beta(Z;Y,Z) = beta(Z,Z,Y)
@ B-freq = 0.000000  C-freq = 0.000000     beta(X;Z,Z) = beta(Z,Z,X)
@ B-freq = 0.000000  C-freq = 0.000000     beta(Y;Z,Z) = beta(Z,Z,Y)
@ B-freq = 0.000000  C-freq = 0.000000     beta(X;Z,Z) =     13.61177104
@ B-freq = 0.000000  C-freq = 0.000000     beta(Y;Z,Z) =    -39.93836489
@ B-freq = 0.000000  C-freq = 0.000000     beta(Z;Z,Z) =      0.00000000
@ B-freq = 0.020100  C-freq = 0.000000     beta(X;Z,Z) =     13.78991766
@ B-freq = 0.020100  C-freq = 0.000000     beta(Y;Z,Z) =    -40.83852212
@ B-freq = 0.020100  C-freq = 0.000000     beta(Z;Z,Z) =      0.00000000
@ B-freq = 0.000000  C-freq = 0.020100     beta(X;X,Z) = beta(X,Z,X)
@ B-freq = 0.000000  C-freq = 0.020100     beta(Y;X,Z) = beta(Y,Z,X)
@ B-freq = 0.000000  C-freq = 0.020100     beta(Z;X,Z) = beta(Z,Z,X)
@ B-freq = 0.020100  C-freq = 0.020100     beta(X;X,Z) = beta(X,Z,X)
@ B-freq = 0.020100  C-freq = 0.020100     beta(Y;X,Z) = beta(Y,Z,X)
@ B-freq = 0.020100  C-freq = 0.020100     beta(Z;X,Z) = beta(Z,Z,X)
@ B-freq = 0.000000  C-freq = 0.020100     beta(X;Y,Z) = beta(X,Z,Y)
@ B-freq = 0.000000  C-freq = 0.020100     beta(Y;Y,Z) = beta(Y,Z,Y)
@ B-freq = 0.000000  C-freq = 0.020100     beta(Z;Y,Z) = beta(Z,Z,Y)
@ B-freq = 0.020100  C-freq = 0.020100     beta(X;Y,Z) = beta(X,Z,Y)
@ B-freq = 0.020100  C-freq = 0.020100     beta(Y;Y,Z) = beta(Y,Z,Y)
@ B-freq = 0.020100  C-freq = 0.020100     beta(Z;Y,Z) = beta(Z,Z,Y)
@ B-freq = 0.000000  C-freq = 0.020100     beta(X;Z,Z) = beta(X,Z,Z)
@ B-freq = 0.000000  C-freq = 0.020100     beta(Y;Z,Z) = beta(Y,Z,Z)
@ B-freq = 0.000000  C-freq = 0.020100     beta(Z;Z,Z) = beta(Z,Z,Z)
@ B-freq = 0.020100  C-freq = 0.020100     beta(X;Z,Z) =     14.20327390
@ B-freq = 0.020100  C-freq = 0.020100     beta(Y;Z,Z) =    -43.02358283
@ B-freq = 0.020100  C-freq = 0.020100     beta(Z;Z,Z) =      0.00000000

  Total CPU  time used in RESPONSE:  10 hours  3 minutes 11 seconds
  Total wall time used in RESPONSE:  10 hours  7 minutes 59 seconds


                   .-------------------------------------------.
                   | End of Dynamic Property Section (RESPONS) |
                   `-------------------------------------------'

  Total CPU  time used in DALTON:  12 hours 36 minutes  3 seconds
  Total wall time used in DALTON:  12 hours 42 minutes  2 seconds

 
     Date and time (Linux)  : Sat May 24 05:54:16 2025
     Host name              : xm045                                   
