

     ************************************************************************
     *************** Dalton - An Electronic Structure Program ***************
     ************************************************************************

    This is output from DALTON release Dalton2020.0 (2020)
         ( Web site: http://daltonprogram.org )

   ----------------------------------------------------------------------------

    NOTE:
     
    Dalton is an experimental code for the evaluation of molecular
    properties using (MC)SCF, DFT, CI, and CC wave functions.
    The authors accept no responsibility for the performance of
    the code or for the correctness of the results.
     
    The code (in whole or part) is provided under a licence and
    is not to be reproduced for further distribution without
    the written permission of the authors or their representatives.
     
    See the home page "http://daltonprogram.org" for further information.
     
    If results obtained with this code are published,
    the appropriate citations would be both of:
     
       K. Aidas, C. Angeli, K. L. Bak, V. Bakken, R. Bast,
       L. Boman, O. Christiansen, R. Cimiraglia, S. Coriani,
       P. Dahle, E. K. Dalskov, U. Ekstroem,
       T. Enevoldsen, J. J. Eriksen, P. Ettenhuber, B. Fernandez,
       L. Ferrighi, H. Fliegl, L. Frediani, K. Hald, A. Halkier,
       C. Haettig, H. Heiberg, T. Helgaker, A. C. Hennum,
       H. Hettema, E. Hjertenaes, S. Hoest, I.-M. Hoeyvik,
       M. F. Iozzi, B. Jansik, H. J. Aa. Jensen, D. Jonsson,
       P. Joergensen, J. Kauczor, S. Kirpekar,
       T. Kjaergaard, W. Klopper, S. Knecht, R. Kobayashi, H. Koch,
       J. Kongsted, A. Krapp, K. Kristensen, A. Ligabue,
       O. B. Lutnaes, J. I. Melo, K. V. Mikkelsen, R. H. Myhre,
       C. Neiss, C. B. Nielsen, P. Norman, J. Olsen,
       J. M. H. Olsen, A. Osted, M. J. Packer, F. Pawlowski,
       T. B. Pedersen, P. F. Provasi, S. Reine, Z. Rinkevicius,
       T. A. Ruden, K. Ruud, V. Rybkin, P. Salek, C. C. M. Samson,
       A. Sanchez de Meras, T. Saue, S. P. A. Sauer,
       B. Schimmelpfennig, K. Sneskov, A. H. Steindal,
       K. O. Sylvester-Hvid, P. R. Taylor, A. M. Teale,
       E. I. Tellgren, D. P. Tew, A. J. Thorvaldsen, L. Thoegersen,
       O. Vahtras, M. A. Watson, D. J. D. Wilson, M. Ziolkowski
       and H. Agren,
       "The Dalton quantum chemistry program system",
       WIREs Comput. Mol. Sci. 2014, 4:269–284 (doi: 10.1002/wcms.1172)
     
    and
     
       Dalton, a molecular electronic structure program,
       Release Dalton2020.0 (2020), see http://daltonprogram.org
   ----------------------------------------------------------------------------

    Authors in alphabetical order (Major contribution(s) in parenthesis):

  Kestutis Aidas,           Vilnius University,           Lithuania   (QM/MM)
  Celestino Angeli,         University of Ferrara,        Italy       (NEVPT2)
  Keld L. Bak,              UNI-C,                        Denmark     (AOSOPPA, non-adiabatic coupling, magnetic properties)
  Vebjoern Bakken,          University of Oslo,           Norway      (DALTON; geometry optimizer, symmetry detection)
  Radovan Bast,             UiT The Arctic U. of Norway,  Norway      (DALTON installation and execution frameworks)
  Pablo Baudin,             University of Valencia,       Spain       (Cholesky excitation energies)
  Linus Boman,              NTNU,                         Norway      (Cholesky decomposition and subsystems)
  Bruno N. Cabral Tenorio,  Technical Univ. of Denmark,   Denmark     (Lanczos-based CC methods)
  Ove Christiansen,         Aarhus University,            Denmark     (CC module)
  Renzo Cimiraglia,         University of Ferrara,        Italy       (NEVPT2)
  Sonia Coriani,            Technical Univ. of Denmark,   Denmark     (CC and RESPONS modules)
  Janusz Cukras,            University of Warsaw,         Poland      (MChD in RESPONS)
  Paal Dahle,               University of Oslo,           Norway      (Parallelization)
  Erik K. Dalskov,          UNI-C,                        Denmark     (SOPPA)
  Thomas Enevoldsen,        Univ. of Southern Denmark,    Denmark     (SOPPA)
  Janus J. Eriksen,         Aarhus University,            Denmark     (Polarizable embedding, TDA)
  Rasmus Faber,             Technical Univ. of Denmark,   Denmark     (Vib.avg. NMR w. SOPPA, parallel AO-SOPPA, CVS-CC and EOMCC)
  Tobias Fahleson,          KTH Stockholm,                Sweden      (Damped cubic response)
  Berta Fernandez,          U. of Santiago de Compostela, Spain       (Doublet spin, ESR in RESPONS)
  Lara Ferrighi,            Aarhus University,            Denmark     (PCM Cubic response)
  Heike Fliegl,             University of Oslo,           Norway      (CCSD(R12))
  Luca Frediani,            UiT The Arctic U. of Norway,  Norway      (PCM)
  Emmanuel Fromager,        Univ. Strasbourg,             France      (MC-srDFT)
  Bin Gao,                  UiT The Arctic U. of Norway,  Norway      (Gen1Int library)
  Andre S. P. Gomes,        CNRS/Universite de Lille,     France      (Frozen density embedding)
  Christof Haettig,         Ruhr-University Bochum,       Germany     (CC module)
  Kasper Hald,              Aarhus University,            Denmark     (CC module)
  Asger Halkier,            Aarhus University,            Denmark     (CC module)
  Frederik Beyer Hansen,    University of Copenhagen,     Denmark     (Parallel AO-SOPPA)
  Erik D. Hedegaard,        Univ. of Southern Denmark,    Denmark     (Polarizable embedding, QM/MM, and MC-srDFT)
  Hanne Heiberg,            University of Oslo,           Norway      (Geometry analysis, selected one-electron integrals)
  Trygve Helgaker,          University of Oslo,           Norway      (DALTON; ABACUS, ERI, DFT modules, London, and much more)
  Alf Christian Hennum,     University of Oslo,           Norway      (Parity violation)
  Hinne Hettema,            University of Auckland,       New Zealand (Quadratic response in RESPONS; SIRIUS supersymmetry)
  Eirik Hjertenaes,         NTNU,                         Norway      (Cholesky decomposition)
  Pi A. B. Haase,           University of Copenhagen,     Denmark     (Triplet AO-SOPPA)
  Maria Francesca Iozzi,    University of Oslo,           Norway      (RPA)
  Christoph Jacob           TU Braunschweig               Germany     (Frozen density embedding)
  Brano Jansik              Technical Univ. of Ostrava    Czech Rep.  (DFT cubic response)
  Hans Joergen Aa. Jensen,  Univ. of Southern Denmark,    Denmark     (DALTON; SIRIUS, RESPONS, ABACUS, MC-srDFT, and much more)
  Dan Jonsson,              UiT The Arctic U. of Norway,  Norway      (Cubic response in RESPONS module)
  Poul Joergensen,          Aarhus University,            Denmark     (RESPONS, ABACUS, and CC modules)
  Maciej Kaminski,          University of Warsaw,         Poland      (CPPh in RESPONS)
  Joanna Kauczor,           Linkoeping University,        Sweden      (Complex polarization propagator (CPP) module)
  Sheela Kirpekar,          Univ. of Southern Denmark,    Denmark     (Mass-velocity & Darwin integrals)
  Erik Kjellgren,           Univ. of Southern Denmark,    Denmark     (MC-srDFT)
  Wim Klopper,              KIT Karlsruhe,                Germany     (R12 code in CC, SIRIUS, and ABACUS modules)
  Stefan Knecht,            ETH Zurich,                   Switzerland (Parallel CI and MCSCF, MC-srDFT)
  Rika Kobayashi,           Australian National Univ.,    Australia   (DIIS in CC, London in MCSCF)
  Henrik Koch,              NTNU,                         Norway      (CC module, Cholesky decomposition)
  Jacob Kongsted,           Univ. of Southern Denmark,    Denmark     (Polarizable embedding, polarizable density embedding, QM/MM)
  Andrea Ligabue,           University of Modena,         Italy       (CTOCD, AOSOPPA)
  Nanna H. List             Univ. of Southern Denmark,    Denmark     (Polarizable embedding)
  Ola B. Lutnaes,           University of Oslo,           Norway      (DFT Hessian)
  Juan I. Melo,             University of Buenos Aires,   Argentina   (LRESC, Relativistic Effects on NMR Shieldings)
  Kurt V. Mikkelsen,        University of Copenhagen,     Denmark     (MC-SCRF and QM/MM)
  Rolf H. Myhre,            NTNU,                         Norway      (Subsystems and CC3)
  Christian Neiss,          Univ. Erlangen-Nuernberg,     Germany     (CCSD(R12))
  Christian B. Nielsen,     University of Copenhagen,     Denmark     (QM/MM)
  Patrick Norman,           KTH Stockholm,                Sweden      (Cubic response and complex frequency response in RESPONS)
  Jeppe Olsen,              Aarhus University,            Denmark     (SIRIUS CI/density modules)
  Jogvan Magnus H. Olsen,   Aarhus University,            Denmark     (Polarizable embedding and polarizable density embedding)
  Anders Osted,             Copenhagen University,        Denmark     (QM/MM)
  Martin J. Packer,         University of Sheffield,      UK          (SOPPA)
  Filip Pawlowski,          Kazimierz Wielki University,  Poland      (CC3)
  Morten N. Pedersen,       Univ. of Southern Denmark,    Denmark     (Polarizable embedding)
  Thomas B. Pedersen,       University of Oslo,           Norway      (Cholesky decomposition)
  Patricio F. Provasi,      University of Northeastern,   Argentina   (Analysis of coupling constants in localized orbitals)
  Peter Reinholdt,          Univ. of Southern Denmark,    Denmark     (Polarizable embedding and polarizable density embedding)
  Zilvinas Rinkevicius,     KTH Stockholm,                Sweden      (open-shell DFT, ESR)
  Elias Rudberg,            KTH Stockholm,                Sweden      (DFT grid and basis info)
  Torgeir A. Ruden,         University of Oslo,           Norway      (Numerical derivatives in ABACUS)
  Kenneth Ruud,             UiT The Arctic U. of Norway,  Norway      (DALTON; ABACUS magnetic properties and much more)
  Pawel Salek,              KTH Stockholm,                Sweden      (DALTON; DFT code)
  Claire C. M. Samson       University of Karlsruhe       Germany     (Boys localization, r12 integrals in ERI)
  Alfredo Sanchez de Meras, University of Valencia,       Spain       (CC module, Cholesky decomposition)
  Trond Saue,               Paul Sabatier University,     France      (direct Fock matrix construction)
  Stephan P. A. Sauer,      University of Copenhagen,     Denmark     (SOPPA(CCSD), SOPPA prop., AOSOPPA, vibrational g-factors)
  Bernd Schimmelpfennig,    Forschungszentrum Karlsruhe,  Germany     (AMFI module)
  Anna K. Schnack-Petersen, University of Copenhagen,     Denmark     (RPA(D) and HRPA(D) properties in AOSOPPA)
  Kristian Sneskov,         Aarhus University,            Denmark     (Polarizable embedding, QM/MM)
  Arnfinn H. Steindal,      UiT The Arctic U. of Norway,  Norway      (parallel QM/MM, polarizable embedding)
  Casper Steinmann,         Aalborg University,           Denmark     (QFIT, polarizable embedding)
  K. O. Sylvester-Hvid,     University of Copenhagen,     Denmark     (MC-SCRF)
  Peter R. Taylor,          VLSCI/Univ. of Melbourne,     Australia   (Symmetry handling ABACUS, integral transformation)
  Andrew M. Teale,          University of Nottingham,     England     (DFT-AC, DFT-D)
  David P. Tew,             University of Bristol,        England     (CCSD(R12))
  Julien Toulouse,          Sorbonne Univ.,               France      (MC-srDFT)
  Olav Vahtras,             KTH Stockholm,                Sweden      (Triplet response, spin-orbit, ESR, TDDFT, open-shell DFT)
  Lucas Visscher,           Vrije Universiteit Amsterdam, Netherlands (Frozen density embedding)
  David J. Wilson,          La Trobe University,          Australia   (DFT Hessian and DFT magnetizabilities)
  Hans Agren,               KTH Stockholm,                Sweden      (SIRIUS module, RESPONS, MC-SCRF solvation)
 --------------------------------------------------------------------------------

     Date and time (Linux)  : Tue May 20 14:31:25 2025
     Host name              : xm045                                   

 * Work memory size             :  1310720000 =  9.766 gigabytes.

 * Directories for basis set searches:
   1) /gpfs/projects/rjh/adrian/summer2025/beta_projects/raw_data/NLO/dalton/hf/n6/dipole
   2) /gpfs/projects/rjh/adrian/dalton/build/basis


Compilation information
-----------------------

 Who compiled             | ahurtado
 Host                     | milan2
 System                   | Linux-5.14.0-427.42.1.el9_4.x86_64
 CMake generator          | Unix Makefiles
 Processor                | x86_64
 64-bit integers          | OFF
 MPI                      | ON
 Fortran compiler         | /gpfs/software/openmpi/milan/gcc13.2/4.1.6/bin/mpi
                          | f90
 Fortran compiler version | GNU Fortran (GCC) 13.2.0
 C compiler               | /gpfs/software/openmpi/milan/gcc13.2/4.1.6/bin/mpi
                          | cc
 C compiler version       | gcc (GCC) 13.2.0
 C++ compiler             | /gpfs/software/openmpi/milan/gcc13.2/4.1.6/bin/mpi
                          | cxx
 C++ compiler version     | unknown
 BLAS                     | /gpfs/software/intel/oneAPI/2024_2/mkl/2024.2/lib/
                          | intel64/libmkl_gf_lp64.so;/gpfs/software/intel/one
                          | API/2024_2/mkl/2024.2/lib/intel64/libmkl_sequentia
                          | l.so;/gpfs/software/intel/oneAPI/2024_2/mkl/2024.2
                          | /lib/intel64/libmkl_core.so;/usr/lib64/libpthread.
                          | a;/usr/lib64/libm.so
 LAPACK                   | /gpfs/software/intel/oneAPI/2024_2/mkl/2024.2/lib/
                          | intel64/libmkl_lapack95_lp64.a;/gpfs/software/inte
                          | l/oneAPI/2024_2/mkl/2024.2/lib/intel64/libmkl_gf_l
                          | p64.so
 Static linking           | OFF
 Last Git revision        | 66052b3af5ea7225e31178bf9a8b031913c72190
 Git branch               | (HEAD detached at Dalton2020.0)
 Configuration time       | 2025-04-10 16:02:31.569498

 * MPI parallel run using 96 processes.


   Content of the .dal input file
 ----------------------------------

**DALTON INPUT
.RUN RESPONSE
.DIRECT
**WAVE FUNCTIONS
.HF
**PROPERTIES
**RESPONSE
*QUADRA
.DIPLEN
.FREQUENCIES
2
0.0 0.0201
**END OF DALTON INPUT


   Content of the .mol file
 ----------------------------

BASIS
aug-cc-pVTZ
blah
blah
Atomtype=4 Angstrom Charge=0 Nosymmetry
Charge=6 Atoms=12
C_a -1.5409340013725623 7.648444002169006 0.0
C_b -2.0062739986099687 6.359974997481831 0.0
C_c -1.117924000488792 5.226000999275696 0.0
C_d -1.512054001638856 3.910470999182316 0.0
C_e -0.5863380016146826 2.807702999139388 0.0
C_f -0.9491559998226989 1.4820489976141258 0.0
C_g 0.0 0.39966299868824806 0.0
C_h -0.3396019991227674 -0.9313269982832101 0.0
C_i 0.6318300011387791 -1.9960939996456535 0.0
C_j 0.31624100019002277 -3.3298059995204445 0.0
C_k 1.3240629984907504 -4.366341999955663 0.0
C_l 1.034302999608722 -5.688294999570765 0.0
Charge=7 Atoms=2
N_a -2.3045209998062157 8.782894000567909 0.0
N_b 2.0916910004841918 -6.691574000934346 0.0
Charge=8 Atoms=2
O_a 3.267613998035823 -6.319843002173978 0.0
O_b 1.710391001350492 -7.868637999804081 0.0
Charge=1 Atoms=14
H_a -0.4588089979387591 7.830007999923906 0.0
H_b -3.089380001340456 6.1770070026268975 0.0
H_c -0.037261997414011726 5.437900001255672 0.0
H_d -2.586386997648074 3.6768810021698886 0.0
H_e 0.4870809995162662 3.0520889997235274 0.0
H_f -2.018261000162647 1.2250459994244614 0.0
H_g 1.067967999601558 0.6655219997529035 0.0
H_h -1.4035229995867406 -1.2083000013807854 0.0
H_i 1.6943540002254438 -1.7107379987228446 0.0
H_j -0.7402810021801856 -3.6304650010264696 0.0
H_k 2.3822630006289045 -4.077865001804448 0.0
H_l 0.03541099903235335 -6.128434001087978 0.0
H_m -3.31398899852896 8.728602000993027 0.0
H_n -1.8783430001741876 9.696697999325472 0.0


       *******************************************************************
       *********** Output from DALTON general input processing ***********
       *******************************************************************

 --------------------------------------------------------------------------------
   Overall default print level:    0
   Print level for DALTON.STAT:    1

    Parallel calculation using MPI
    AO-direct calculation (in sections where implemented)
    HERMIT 1- and 2-electron integral sections will be executed
    "Old" integral transformation used (limited to max 255 basis functions)
    Wave function sections will be executed (SIRIUS module)
    Dynamic molecular response properties section will be executed (RESPONSE module)
 --------------------------------------------------------------------------------


   ****************************************************************************
   *************** Output of molecule and basis set information ***************
   ****************************************************************************


    The two title cards from your ".mol" input:
    ------------------------------------------------------------------------
 1: blah                                                                    
 2: blah                                                                    
    ------------------------------------------------------------------------

  Coordinates are entered in Angstrom and converted to atomic units.
          - Conversion factor : 1 bohr = 0.52917721 A

  Atomic type no.    1
  --------------------
  Nuclear charge:   6.00000
  Number of symmetry independent centers:   12
  Number of basis sets to read;    2
  Basis set file used for this atomic type with Z =   6 :
     "/gpfs/projects/rjh/adrian/dalton/build/basis/aug-cc-pVTZ"

  Atomic type no.    2
  --------------------
  Nuclear charge:   7.00000
  Number of symmetry independent centers:    2
  Number of basis sets to read;    2
  Basis set file used for this atomic type with Z =   7 :
     "/gpfs/projects/rjh/adrian/dalton/build/basis/aug-cc-pVTZ"

  Atomic type no.    3
  --------------------
  Nuclear charge:   8.00000
  Number of symmetry independent centers:    2
  Number of basis sets to read;    2
  Basis set file used for this atomic type with Z =   8 :
     "/gpfs/projects/rjh/adrian/dalton/build/basis/aug-cc-pVTZ"

  Atomic type no.    4
  --------------------
  Nuclear charge:   1.00000
  Number of symmetry independent centers:   14
  Number of basis sets to read;    2
  Basis set file used for this atomic type with Z =   1 :
     "/gpfs/projects/rjh/adrian/dalton/build/basis/aug-cc-pVTZ"


                         SYMGRP: Point group information
                         -------------------------------

@    Point group: C1 


                                 Isotopic Masses
                                 ---------------

                           C_a        12.000000
                           C_b        12.000000
                           C_c        12.000000
                           C_d        12.000000
                           C_e        12.000000
                           C_f        12.000000
                           C_g        12.000000
                           C_h        12.000000
                           C_i        12.000000
                           C_j        12.000000
                           C_k        12.000000
                           C_l        12.000000
                           N_a        14.003074
                           N_b        14.003074
                           O_a        15.994915
                           O_b        15.994915
                           H_a         1.007825
                           H_b         1.007825
                           H_c         1.007825
                           H_d         1.007825
                           H_e         1.007825
                           H_f         1.007825
                           H_g         1.007825
                           H_h         1.007825
                           H_i         1.007825
                           H_j         1.007825
                           H_k         1.007825
                           H_l         1.007825
                           H_m         1.007825
                           H_n         1.007825

                       Total mass:   218.105528 amu
                       Natural abundance:  86.325 %

 Center-of-mass coordinates (a.u.):    0.084529   -0.254926    0.000000
 Center-of-mass coordinates (Angs):    0.044731   -0.134901    0.000000


  Atoms and basis sets
  --------------------

  Number of atom types :    4
  Total number of atoms:   30

  Basis set used is "aug-cc-pVTZ" from the basis set library.

  label    atoms   charge   prim   cont     basis
  ----------------------------------------------------------------------
  C_         12    6.0000    58    46      [11s6p3d2f|5s4p3d2f]                               
  N_          2    7.0000    58    46      [11s6p3d2f|5s4p3d2f]                               
  O_          2    8.0000    58    46      [11s6p3d2f|5s4p3d2f]                               
  H_         14    1.0000    25    23      [6s3p2d|4s3p2d]                                    
  ----------------------------------------------------------------------
  total:     30  116.0000  1278  1058
  ----------------------------------------------------------------------
  Spherical harmonic basis used.

  Threshold for neglecting AO integrals:  1.00D-12

  Max    interatomic separation is   17.9282 Angstrom (   33.8794 Bohr)
  between atoms   30 and   16, "H_n   " and "O_b   ".

  Min HX interatomic separation is    1.0083 Angstrom (    1.9054 Bohr)

  Min YX interatomic separation is    1.2333 Angstrom (    2.3306 Bohr)


  Bond distances (Angstrom):
  --------------------------

                  atom 1     atom 2       distance
                  ------     ------       --------
  bond distance:  C_b        C_a          1.369925
  bond distance:  C_c        C_b          1.440508
  bond distance:  C_d        C_c          1.373302
  bond distance:  C_e        C_d          1.439808
  bond distance:  C_f        C_e          1.374407
  bond distance:  C_g        C_f          1.439603
  bond distance:  C_h        C_g          1.373632
  bond distance:  C_i        C_h          1.441322
  bond distance:  C_j        C_i          1.370542
  bond distance:  C_k        C_j          1.445722
  bond distance:  C_l        C_k          1.353337
  bond distance:  N_a        C_a          1.367495
  bond distance:  N_b        C_l          1.457614
  bond distance:  O_a        N_b          1.233280
  bond distance:  O_b        N_b          1.237283
  bond distance:  H_a        C_a          1.097251
  bond distance:  H_b        C_b          1.098452
  bond distance:  H_c        C_c          1.101241
  bond distance:  H_d        C_d          1.099434
  bond distance:  H_e        C_e          1.100887
  bond distance:  H_f        C_f          1.099562
  bond distance:  H_g        C_g          1.100562
  bond distance:  H_h        C_h          1.099383
  bond distance:  H_i        C_i          1.100175
  bond distance:  H_j        C_j          1.098469
  bond distance:  H_k        C_k          1.096816
  bond distance:  H_l        C_l          1.091562
  bond distance:  H_m        N_a          1.010927
  bond distance:  H_n        N_a          1.008298


  Bond angles (degrees):
  ----------------------

                  atom 1     atom 2     atom 3         angle
                  ------     ------     ------         -----
  bond angle:     C_b        C_a        N_a          126.198
  bond angle:     C_b        C_a        H_a          119.382
  bond angle:     N_a        C_a        H_a          114.419
  bond angle:     C_a        C_b        C_c          122.067
  bond angle:     C_a        C_b        H_b          119.446
  bond angle:     C_c        C_b        H_b          118.487
  bond angle:     C_b        C_c        C_d          125.247
  bond angle:     C_b        C_c        H_c          116.981
  bond angle:     C_d        C_c        H_c          117.772
  bond angle:     C_c        C_d        C_e          123.310
  bond angle:     C_c        C_d        H_d          118.945
  bond angle:     C_e        C_d        H_d          117.745
  bond angle:     C_d        C_e        C_f          124.682
  bond angle:     C_d        C_e        H_e          117.186
  bond angle:     C_f        C_e        H_e          118.132
  bond angle:     C_e        C_f        C_g          123.446
  bond angle:     C_e        C_f        H_f          118.823
  bond angle:     C_g        C_f        H_f          117.731
  bond angle:     C_f        C_g        C_h          124.439
  bond angle:     C_f        C_g        H_g          117.269
  bond angle:     C_h        C_g        H_g          118.293
  bond angle:     C_g        C_h        C_i          123.311
  bond angle:     C_g        C_h        H_h          118.906
  bond angle:     C_i        C_h        H_h          117.783
  bond angle:     C_h        C_i        C_j          124.312
  bond angle:     C_h        C_i        H_i          117.343
  bond angle:     C_j        C_i        H_i          118.346
  bond angle:     C_i        C_j        C_k          122.492
  bond angle:     C_i        C_j        H_j          119.198
  bond angle:     C_k        C_j        H_j          118.310
  bond angle:     C_j        C_k        C_l          123.442
  bond angle:     C_j        C_k        H_k          118.946
  bond angle:     C_l        C_k        H_k          117.612
  bond angle:     C_k        C_l        N_b          121.133
  bond angle:     C_k        C_l        H_l          126.143
  bond angle:     N_b        C_l        H_l          112.725
  bond angle:     C_a        N_a        H_m          120.866
  bond angle:     C_a        N_a        H_n          121.053
  bond angle:     H_m        N_a        H_n          118.082
  bond angle:     C_l        N_b        O_a          118.961
  bond angle:     C_l        N_b        O_b          115.547
  bond angle:     O_a        N_b        O_b          125.492




 Principal moments of inertia (u*A**2) and principal axes
 --------------------------------------------------------

   IA      88.457596         -0.268559    0.963263    0.000000
   IB    6848.677198          0.963263    0.268559    0.000000
   IC    6937.134794          0.000000    0.000000    1.000000


 Rotational constants
 --------------------

@    The molecule is planar.

               A                   B                   C

           5713.2347             73.7922             72.8513 MHz
            0.190573            0.002461            0.002430 cm-1


@  Nuclear repulsion energy :  839.879465627210 Hartree


                     .---------------------------------------.
                     | Starting in Integral Section (HERMIT) |
                     `---------------------------------------'



 ***************************************************************************************
 ****************** Output from **INTEGRALS input processing (HERMIT) ******************
 ***************************************************************************************


 - Using defaults, no **INTEGRALS input found

 Default print level:        1

 Calculation of one-electron Hamiltonian integrals.

 Center of mass  (bohr):      0.084529064515     -0.254926480599      0.000000000000
 Operator center (bohr):      0.000000000000      0.000000000000      0.000000000000
 Gauge origin    (bohr):      0.000000000000      0.000000000000      0.000000000000
 Dipole origin   (bohr):      0.000000000000      0.000000000000      0.000000000000


     ************************************************************************
     ************************** Output from HERINT **************************
     ************************************************************************



                      Nuclear contribution to dipole moments
                      --------------------------------------

                 au               Debye          C m (/(10**-30)

      x      0.00000375         0.00000953         0.00003179
      y     -0.00000952        -0.00002420        -0.00008071
      z      0.00000000         0.00000000         0.00000000


  Time used in ONEDRV     is       1.77 seconds
  Time used in HUCKEL     is       0.46 seconds
  Time used in OVERLAP    is       0.24 seconds
  Time used in POPOVLP    is       0.48 seconds
  Time used in R2         is       0.31 seconds
  Time used in R4         is       0.37 seconds
  Time used in DIPLEN     is       0.40 seconds
  Time used in QUADRUP    is       0.81 seconds
  Time used in KINENE     is       0.43 seconds
  Time used in GABGEN     is       2.49 seconds
  Total CPU  time used in HERMIT:   7.77 seconds
  Total wall time used in HERMIT:   7.91 seconds


                        .----------------------------------.
                        | End of Integral Section (HERMIT) |
                        `----------------------------------'



                   .--------------------------------------------.
                   | Starting in Wave Function Section (SIRIUS) |
                   `--------------------------------------------'



@ Primary orbitals are deleted during canonical orthonormalization
@   because of detected numerical linear dependence or too large coefficients.
@ Eigenvalue threshold for num. lin. dep. =  1.00D-06

@   4 MO components are deleted in symmetry    1
 Overlap eigenvalues of the deleted orbitals:
  9.78D-07  8.60D-07  8.14D-07  2.02D-07

 Max MO coeff. of last deleted MO & limit:  3.50D+02  1.00D+03

WARNING: Orbitals have been deleted because of numerical
   linear dependence although not requested in input.

 *** Output from Huckel module :

     Using EWMO model:          T
     Using EHT  model:          F
     Number of Huckel orbitals each symmetry:   94

 EWMO - Energy Weighted Maximum Overlap - is a Huckel type method,
        which normally is better than Extended Huckel Theory.
 Reference: Linderberg and Ohrn, Propagators in Quantum Chemistry (Wiley, 1973)

 Huckel EWMO eigenvalues for symmetry :  1
          -20.684751     -20.683489     -15.677076     -15.674974     -11.359272
          -11.359089     -11.358575     -11.356923     -11.354453     -11.351843
          -11.348237     -11.346829     -11.345842     -11.345475     -11.345302
          -11.345275      -1.964070      -1.791004      -1.771497      -1.714524
           -1.610037      -1.472373      -1.438433      -1.304227      -1.191901
           -1.144337      -1.118703      -1.019259      -0.990557      -0.910296
           -0.869944      -0.851997      -0.824360      -0.768146      -0.765496
           -0.721976      -0.714853      -0.693582      -0.647974      -0.644434
           -0.611097      -0.594796      -0.585975      -0.566900      -0.547087
           -0.534422      -0.522376      -0.501686      -0.491914      -0.491873
           -0.489577      -0.479132      -0.478316      -0.467189      -0.424763
           -0.415728      -0.374310      -0.370913      -0.334716      -0.287126
           -0.253635      -0.229179      -0.228800      -0.211810      -0.201193
           -0.201104      -0.195466      -0.190507      -0.166495      -0.142763
           -0.138674      -0.132387      -0.130592      -0.130127      -0.129288
           -0.128661      -0.127701      -0.126874      -0.126319      -0.124647
           -0.124407      -0.123086      -0.110071      -0.108405      -0.101713
           -0.099251      -0.094039      -0.091531      -0.089081      -0.086814
           -0.085945      -0.083848      -0.081393      -0.079509

 **********************************************************************
 *SIRIUS* a direct, restricted step, second order MCSCF program       *
 **********************************************************************

 
     Date and time (Linux)  : Tue May 20 14:32:35 2025
     Host name              : xm045                                   

 Title lines from ".mol" input file:
     blah                                                                    
     blah                                                                    

 Print level on unit LUPRI =   2 is   0
 Print level on unit LUW4  =   2 is   5

@    Restricted, closed shell Hartree-Fock calculation.

@    Time-dependent Hartree-Fock calculation (random phase approximation).
 Fock matrices are calculated directly and in parallel without use of integrals on disk.

 Initial molecular orbitals are obtained according to
 ".MOSTART EWMO  " input option

     Wave function specification
     ============================
@    Wave function type        --- HF ---
@    Number of closed shell electrons         116
@    Number of electrons in active shells       0
@    Total charge of the molecule               0

@    Spin multiplicity and 2 M_S                1         0
@    Total number of symmetries                 1 (point group: C1 )
@    Reference state symmetry                   1 (irrep name : A  )

     Orbital specifications
     ======================
@    Abelian symmetry species          All |    1
@                                          |  A  
                                       --- |  ---
@    Occupied SCF orbitals              58 |   58
@    Secondary orbitals                996 |  996
@    Total number of orbitals         1054 | 1054
@    Number of basis functions        1058 | 1058

     Optimization information
     ========================
@    Number of configurations                 1
@    Number of orbital rotations          57768
     ------------------------------------------
@    Total number of variables            57769

     Maximum number of Fock   iterations      0
     Maximum number of DIIS   iterations     60
     Maximum number of QC-SCF iterations     60
     Threshold for SCF convergence     1.00D-05

    INFORMATION: Switched to "new" integral transformation (from 1988 ;-) )
    because more than 255 basis functions.


 ***********************************************
 ***** DIIS acceleration of SCF iterations *****
 ***********************************************

 C1-DIIS algorithm; max error vectors =    8

 Iter      Total energy        Error norm    Delta(E)  DIIS dim.
 -----------------------------------------------------------------------------
   1  Screening settings (-IFTHRS, JTDIIS, DIFDEN, times)  -10    1    T  4.50D+01  4.56D+01
@  1    -718.352802351        6.74827D+00   -7.18D+02    1
      Virial theorem: -V/T =      2.008581
@    MULPOP   C_a     0.34; C_b    -0.08; C_c     0.00; C_d    -0.13; C_e     0.09; C_f     0.02; C_g     0.13; C_h    -0.01; C_i     0.01; C_j    -0.02; 
@             C_k    -0.04; C_l     0.18; N_a    -0.67; N_b     0.70; O_a    -0.95; O_b    -0.89; H_a     0.23; H_b     0.16; H_c    -0.01; H_d     0.01; 
@             H_e    -0.04; H_f     0.00; H_g    -0.03; H_h    -0.02; H_i    -0.02; H_j     0.05; H_k     0.07; H_l     0.30; H_m     0.30; H_n     0.32; 
   1  Level shift: doubly occupied orbital energies shifted by -2.00D-01
 -----------------------------------------------------------------------------
   2  Screening settings (-IFTHRS, JTDIIS, DIFDEN, times)  -10    2    T  4.17D+01  4.23D+01
@  2    -720.774949683        2.90865D+00   -2.42D+00    2
      Virial theorem: -V/T =      2.001454
@    MULPOP   C_a    -0.47; C_b     0.19; C_c     0.07; C_d    -0.05; C_e    -0.05; C_f    -0.08; C_g    -0.07; C_h    -0.17; C_i     0.07; C_j    -0.02; 
@             C_k     0.27; C_l    -0.80; N_a    -0.54; N_b     0.19; O_a    -0.32; O_b    -0.20; H_a     0.59; H_b     0.25; H_c     0.05; H_d    -0.07; 
@             H_e     0.01; H_f    -0.00; H_g    -0.02; H_h    -0.00; H_i    -0.02; H_j     0.03; H_k     0.24; H_l     0.56; H_m     0.20; H_n     0.19; 
   2  Level shift: doubly occupied orbital energies shifted by -1.00D-01
 -----------------------------------------------------------------------------
   3  Screening settings (-IFTHRS, JTDIIS, DIFDEN, times)  -10    3    T  4.05D+01  4.10D+01
@  3    -721.177362548        8.39085D-01   -4.02D-01    3
      Virial theorem: -V/T =      2.001481
@    MULPOP   C_a    -0.36; C_b     0.07; C_c     0.07; C_d    -0.11; C_e    -0.09; C_f    -0.15; C_g    -0.10; C_h    -0.20; C_i     0.06; C_j    -0.03; 
@             C_k     0.26; C_l    -0.55; N_a    -0.53; N_b     0.88; O_a    -0.71; O_b    -0.72; H_a     0.58; H_b     0.27; H_c     0.07; H_d    -0.01; 
@             H_e     0.06; H_f     0.04; H_g     0.03; H_h     0.04; H_i     0.02; H_j     0.04; H_k     0.27; H_l     0.53; H_m     0.14; H_n     0.13; 
   3  Level shift: doubly occupied orbital energies shifted by -5.00D-02
 -----------------------------------------------------------------------------
   4  Screening settings (-IFTHRS, JTDIIS, DIFDEN, times)  -10    4    T  3.97D+01  4.00D+01
@  4    -721.222956896        2.55082D-01   -4.56D-02    4
      Virial theorem: -V/T =      2.003370
@    MULPOP   C_a    -0.32; C_b     0.04; C_c     0.09; C_d    -0.12; C_e    -0.06; C_f    -0.16; C_g    -0.10; C_h    -0.20; C_i     0.09; C_j    -0.05; 
@             C_k     0.25; C_l    -0.60; N_a    -0.54; N_b     0.71; O_a    -0.67; O_b    -0.62; H_a     0.57; H_b     0.26; H_c     0.08; H_d    -0.01; 
@             H_e     0.07; H_f     0.04; H_g     0.04; H_h     0.05; H_i     0.04; H_j     0.06; H_k     0.31; H_l     0.54; H_m     0.11; H_n     0.10; 
   4  Level shift: doubly occupied orbital energies shifted by -2.50D-02
 -----------------------------------------------------------------------------
   5  Screening settings (-IFTHRS, JTDIIS, DIFDEN, times)  -10    5    T  3.85D+01  3.89D+01
@  5    -721.231776485        1.02614D-01   -8.82D-03    5
      Virial theorem: -V/T =      2.002714
@    MULPOP   C_a    -0.34; C_b     0.03; C_c     0.08; C_d    -0.13; C_e    -0.08; C_f    -0.17; C_g    -0.12; C_h    -0.22; C_i     0.07; C_j    -0.07; 
@             C_k     0.24; C_l    -0.59; N_a    -0.56; N_b     0.76; O_a    -0.66; O_b    -0.65; H_a     0.59; H_b     0.27; H_c     0.09; H_d    -0.00; 
@             H_e     0.08; H_f     0.06; H_g     0.05; H_h     0.06; H_i     0.06; H_j     0.07; H_k     0.32; H_l     0.54; H_m     0.12; H_n     0.11; 
   5  Level shift: doubly occupied orbital energies shifted by -1.25D-02
 -----------------------------------------------------------------------------
   6  Screening settings (-IFTHRS, JTDIIS, DIFDEN, times)  -14    6    F  4.70D+01  4.76D+01
@  6    -721.234070255        5.07154D-02   -2.29D-03    6
      Virial theorem: -V/T =      2.002567
@    MULPOP   C_a    -0.34; C_b     0.04; C_c     0.08; C_d    -0.13; C_e    -0.08; C_f    -0.18; C_g    -0.12; C_h    -0.22; C_i     0.08; C_j    -0.07; 
@             C_k     0.24; C_l    -0.60; N_a    -0.57; N_b     0.75; O_a    -0.67; O_b    -0.64; H_a     0.59; H_b     0.27; H_c     0.09; H_d     0.00; 
@             H_e     0.08; H_f     0.06; H_g     0.05; H_h     0.06; H_i     0.06; H_j     0.07; H_k     0.33; H_l     0.54; H_m     0.12; H_n     0.11; 
 -----------------------------------------------------------------------------
   7  Screening settings (-IFTHRS, JTDIIS, DIFDEN, times)  -14    7    T  4.47D+01  4.53D+01
@  7    -721.234730728        2.40338D-02   -6.60D-04    7
      Virial theorem: -V/T =      2.002609
@    MULPOP   C_a    -0.34; C_b     0.04; C_c     0.08; C_d    -0.13; C_e    -0.08; C_f    -0.18; C_g    -0.12; C_h    -0.22; C_i     0.08; C_j    -0.07; 
@             C_k     0.24; C_l    -0.60; N_a    -0.57; N_b     0.75; O_a    -0.66; O_b    -0.64; H_a     0.59; H_b     0.27; H_c     0.09; H_d    -0.00; 
@             H_e     0.08; H_f     0.06; H_g     0.05; H_h     0.06; H_i     0.06; H_j     0.07; H_k     0.33; H_l     0.54; H_m     0.12; H_n     0.11; 
 -----------------------------------------------------------------------------
   8  Screening settings (-IFTHRS, JTDIIS, DIFDEN, times)  -14    8    T  4.42D+01  4.46D+01
@  8    -721.234873346        9.95529D-03   -1.43D-04    8
      Virial theorem: -V/T =      2.002606
@    MULPOP   C_a    -0.35; C_b     0.04; C_c     0.08; C_d    -0.13; C_e    -0.08; C_f    -0.17; C_g    -0.12; C_h    -0.22; C_i     0.08; C_j    -0.07; 
@             C_k     0.24; C_l    -0.60; N_a    -0.57; N_b     0.76; O_a    -0.66; O_b    -0.64; H_a     0.59; H_b     0.27; H_c     0.09; H_d    -0.00; 
@             H_e     0.08; H_f     0.06; H_g     0.05; H_h     0.06; H_i     0.06; H_j     0.07; H_k     0.33; H_l     0.54; H_m     0.12; H_n     0.11; 
 -----------------------------------------------------------------------------
   9  Screening settings (-IFTHRS, JTDIIS, DIFDEN, times)  -14    9    T  4.38D+01  4.42D+01
@  9    -721.234894114        3.67265D-03   -2.08D-05    8
      Virial theorem: -V/T =      2.002595
@    MULPOP   C_a    -0.35; C_b     0.04; C_c     0.08; C_d    -0.13; C_e    -0.08; C_f    -0.17; C_g    -0.12; C_h    -0.22; C_i     0.08; C_j    -0.07; 
@             C_k     0.24; C_l    -0.60; N_a    -0.57; N_b     0.76; O_a    -0.66; O_b    -0.64; H_a     0.59; H_b     0.27; H_c     0.09; H_d    -0.00; 
@             H_e     0.08; H_f     0.06; H_g     0.05; H_h     0.06; H_i     0.06; H_j     0.07; H_k     0.33; H_l     0.54; H_m     0.12; H_n     0.11; 
 -----------------------------------------------------------------------------
  10  Screening settings (-IFTHRS, JTDIIS, DIFDEN, times)  -14   10    T  4.32D+01  4.38D+01
@ 10    -721.234898374        1.95253D-03   -4.26D-06    8
      Virial theorem: -V/T =      2.002596
@    MULPOP   C_a    -0.35; C_b     0.04; C_c     0.08; C_d    -0.13; C_e    -0.08; C_f    -0.17; C_g    -0.12; C_h    -0.22; C_i     0.08; C_j    -0.07; 
@             C_k     0.24; C_l    -0.60; N_a    -0.57; N_b     0.76; O_a    -0.66; O_b    -0.64; H_a     0.59; H_b     0.27; H_c     0.09; H_d    -0.00; 
@             H_e     0.08; H_f     0.06; H_g     0.05; H_h     0.06; H_i     0.06; H_j     0.07; H_k     0.33; H_l     0.54; H_m     0.12; H_n     0.11; 
 -----------------------------------------------------------------------------
  11  Screening settings (-IFTHRS, JTDIIS, DIFDEN, times)  -14   11    T  4.27D+01  4.33D+01
@ 11    -721.234899822        1.13748D-03   -1.45D-06    8
      Virial theorem: -V/T =      2.002597
@    MULPOP   C_a    -0.35; C_b     0.04; C_c     0.08; C_d    -0.13; C_e    -0.08; C_f    -0.17; C_g    -0.12; C_h    -0.22; C_i     0.08; C_j    -0.07; 
@             C_k     0.24; C_l    -0.60; N_a    -0.57; N_b     0.76; O_a    -0.66; O_b    -0.64; H_a     0.59; H_b     0.27; H_c     0.08; H_d    -0.00; 
@             H_e     0.08; H_f     0.06; H_g     0.05; H_h     0.06; H_i     0.06; H_j     0.07; H_k     0.33; H_l     0.54; H_m     0.12; H_n     0.11; 
 -----------------------------------------------------------------------------
  12  Screening settings (-IFTHRS, JTDIIS, DIFDEN, times)  -14   12    T  4.25D+01  4.30D+01
@ 12    -721.234900318        3.60051D-04   -4.97D-07    8
      Virial theorem: -V/T =      2.002596
@    MULPOP   C_a    -0.35; C_b     0.04; C_c     0.08; C_d    -0.13; C_e    -0.08; C_f    -0.17; C_g    -0.12; C_h    -0.22; C_i     0.08; C_j    -0.07; 
@             C_k     0.24; C_l    -0.60; N_a    -0.57; N_b     0.76; O_a    -0.66; O_b    -0.64; H_a     0.59; H_b     0.27; H_c     0.08; H_d    -0.00; 
@             H_e     0.08; H_f     0.06; H_g     0.05; H_h     0.06; H_i     0.06; H_j     0.07; H_k     0.33; H_l     0.54; H_m     0.12; H_n     0.11; 
 -----------------------------------------------------------------------------
  13  Screening settings (-IFTHRS, JTDIIS, DIFDEN, times)  -14   13    T  4.16D+01  4.22D+01
@ 13    -721.234900370        1.48060D-04   -5.18D-08    8
      Virial theorem: -V/T =      2.002596
@    MULPOP   C_a    -0.35; C_b     0.04; C_c     0.08; C_d    -0.13; C_e    -0.08; C_f    -0.17; C_g    -0.12; C_h    -0.22; C_i     0.08; C_j    -0.07; 
@             C_k     0.24; C_l    -0.60; N_a    -0.57; N_b     0.76; O_a    -0.66; O_b    -0.64; H_a     0.59; H_b     0.27; H_c     0.08; H_d    -0.00; 
@             H_e     0.08; H_f     0.06; H_g     0.05; H_h     0.06; H_i     0.06; H_j     0.07; H_k     0.33; H_l     0.54; H_m     0.12; H_n     0.11; 
 -----------------------------------------------------------------------------
  14  Screening settings (-IFTHRS, JTDIIS, DIFDEN, times)  -14   14    T  4.03D+01  4.09D+01
@ 14    -721.234900374        5.56285D-05   -3.83D-09    8
      Virial theorem: -V/T =      2.002596
@    MULPOP   C_a    -0.35; C_b     0.04; C_c     0.08; C_d    -0.13; C_e    -0.08; C_f    -0.17; C_g    -0.12; C_h    -0.22; C_i     0.08; C_j    -0.07; 
@             C_k     0.24; C_l    -0.60; N_a    -0.57; N_b     0.76; O_a    -0.66; O_b    -0.64; H_a     0.59; H_b     0.27; H_c     0.08; H_d    -0.00; 
@             H_e     0.08; H_f     0.06; H_g     0.05; H_h     0.06; H_i     0.06; H_j     0.07; H_k     0.33; H_l     0.54; H_m     0.12; H_n     0.11; 
 -----------------------------------------------------------------------------
  15  Screening settings (-IFTHRS, JTDIIS, DIFDEN, times)  -14   15    T  3.97D+01  4.03D+01
@ 15    -721.234900375        2.46526D-05   -6.81D-10    8
      Virial theorem: -V/T =      2.002596
@    MULPOP   C_a    -0.35; C_b     0.04; C_c     0.08; C_d    -0.13; C_e    -0.08; C_f    -0.17; C_g    -0.12; C_h    -0.22; C_i     0.08; C_j    -0.07; 
@             C_k     0.24; C_l    -0.60; N_a    -0.57; N_b     0.76; O_a    -0.66; O_b    -0.64; H_a     0.59; H_b     0.27; H_c     0.08; H_d    -0.00; 
@             H_e     0.08; H_f     0.06; H_g     0.05; H_h     0.06; H_i     0.06; H_j     0.07; H_k     0.33; H_l     0.54; H_m     0.12; H_n     0.11; 
 -----------------------------------------------------------------------------
  16  Screening settings (-IFTHRS, JTDIIS, DIFDEN, times)  -14   16    T  3.96D+01  3.99D+01
@ 16    -721.234900375        1.09422D-05   -7.69D-11    8
      Virial theorem: -V/T =      2.002596
@    MULPOP   C_a    -0.35; C_b     0.04; C_c     0.08; C_d    -0.13; C_e    -0.08; C_f    -0.17; C_g    -0.12; C_h    -0.22; C_i     0.08; C_j    -0.07; 
@             C_k     0.24; C_l    -0.60; N_a    -0.57; N_b     0.76; O_a    -0.66; O_b    -0.64; H_a     0.59; H_b     0.27; H_c     0.08; H_d    -0.00; 
@             H_e     0.08; H_f     0.06; H_g     0.05; H_h     0.06; H_i     0.06; H_j     0.07; H_k     0.33; H_l     0.54; H_m     0.12; H_n     0.11; 
 -----------------------------------------------------------------------------
  17  Screening settings (-IFTHRS, JTDIIS, DIFDEN, times)  -14   17    T  3.97D+01  4.01D+01
@ 17    -721.234900375        6.35412D-06   -2.91D-11    8

@ *** DIIS converged in  17 iterations !
@     Converged SCF energy, gradient:   -721.234900374733    6.35D-06
    - total time used in SIRFCK :              0.00 seconds


 *** SCF orbital energy analysis ***

 Only the 20 lowest virtual orbital energies printed in each symmetry.

 Number of electrons :  116
 Orbital occupations :   58

 Sym       Hartree-Fock orbital energies

1 A     -20.58341843   -20.58062401   -15.83393401   -15.59990943   -11.31152300
        -11.28524276   -11.28303095   -11.27454488   -11.26657576   -11.26351603
        -11.26157954   -11.25310625   -11.24708078   -11.24203761   -11.23658976
        -11.23382553    -1.57373350    -1.37150036    -1.24509139    -1.13827480
         -1.11992438    -1.09854813    -1.06749273    -1.02783676    -0.98090522
         -0.93560172    -0.86954254    -0.82293724    -0.79317821    -0.78090527
         -0.77060088    -0.76499136    -0.73134005    -0.72465954    -0.70776099
         -0.69175144    -0.68785386    -0.65862733    -0.65028760    -0.62537635
         -0.60104548    -0.59044433    -0.56909361    -0.54868935    -0.54684175
         -0.53230611    -0.53028647    -0.51867058    -0.50835640    -0.49265242
         -0.47663677    -0.47401790    -0.46692377    -0.43548622    -0.42819716
         -0.37678374    -0.31497613    -0.24943374     0.01292056     0.01852204
          0.02094296     0.02861699     0.03048652     0.03547398     0.04341883
          0.04964331     0.05858016     0.06707552     0.07374177     0.07581873
          0.07684521     0.08275454     0.08288092     0.08582426     0.08955152
          0.08973059     0.09095543     0.09457088

    E(LUMO) :     0.01292056 au (symmetry 1)
  - E(HOMO) :    -0.24943374 au (symmetry 1)
  ------------------------------------------
    gap     :     0.26235430 au

 --- Writing SIRIFC interface file

 CPU and wall time for SCF :     863.480     874.128


                       .-----------------------------------.
                       | --- Final results from SIRIUS --- |
                       `-----------------------------------'


@    Spin multiplicity:           1
@    Spatial symmetry:            1 ( irrep  A   in C1  )
@    Total charge of molecule:    0

@    Final HF energy:            -721.234900374733                 
@    Nuclear repulsion:           839.879465627210
@    Electronic energy:         -1561.114366001943

@    Final gradient norm:           0.000006354118

 
     Date and time (Linux)  : Tue May 20 14:47:12 2025
     Host name              : xm045                                   

File label for MO orbitals:  20May25   FOCKDIIS

 (Only coefficients > 0.0100 are printed.)

 Molecular orbitals for symmetry species 1  (A  )
 ------------------------------------------------

    Orbital        49       50       51       52       53       54       55
   4 C_a :1s    -0.0130   0.0000   0.0266   0.0287   0.0000   0.0000  -0.0000
   5 C_a :1s    -0.0016  -0.0000  -0.0122  -0.0691  -0.0000  -0.0000   0.0000
   6 C_a :2px   -0.0298  -0.0000   0.0005  -0.0000  -0.0000  -0.0000   0.0000
   8 C_a :2pz   -0.0000   0.0335   0.0000   0.0000   0.0309  -0.0017   0.0292
  12 C_a :2px   -0.0065  -0.0000  -0.0058  -0.0142  -0.0000  -0.0000   0.0000
  13 C_a :2py    0.0450  -0.0000  -0.0021  -0.0095  -0.0000  -0.0000   0.0000
  15 C_a :2px   -0.0057   0.0000   0.0103   0.0069  -0.0000  -0.0000  -0.0000
  16 C_a :2py   -0.0010  -0.0000  -0.0116   0.0085  -0.0000  -0.0000   0.0000
  24 C_a :3d1-  -0.0000   0.0032  -0.0000   0.0000   0.0109   0.0018  -0.0194
  28 C_a :3d2-   0.0318   0.0000   0.0090   0.0030   0.0000   0.0000  -0.0000
  32 C_a :3d2+   0.0161   0.0000   0.0047  -0.0003   0.0000  -0.0000  -0.0000
  48 C_b :1s     0.0580   0.0000   0.0026  -0.0003   0.0000   0.0000  -0.0000
  50 C_b :1s    -0.0114  -0.0000  -0.0036   0.0173   0.0000  -0.0000   0.0000
  51 C_b :1s    -0.0220   0.0000  -0.0459   0.0311  -0.0000  -0.0000  -0.0000
  52 C_b :2px    0.1729   0.0000   0.0036  -0.0003   0.0000   0.0000  -0.0000
  53 C_b :2py   -0.0920  -0.0000  -0.0062   0.0005  -0.0000  -0.0000   0.0000
  54 C_b :2pz    0.0000  -0.0203   0.0000  -0.0000  -0.1068  -0.0197   0.2160
  58 C_b :2px    0.0231  -0.0000  -0.0020   0.0011   0.0000   0.0000   0.0000
  59 C_b :2py    0.0282  -0.0000  -0.0136  -0.0196  -0.0000  -0.0000   0.0000
  62 C_b :2py   -0.0044   0.0000   0.0403   0.0142   0.0000   0.0000  -0.0000
  73 C_b :3d2+  -0.0102   0.0000  -0.0005   0.0003   0.0000   0.0000  -0.0000
  74 C_b :3d2-   0.0248   0.0000  -0.0001  -0.0107   0.0000  -0.0000  -0.0000
  75 C_b :3d1-   0.0000  -0.0147   0.0000  -0.0000  -0.0007   0.0011  -0.0038
  77 C_b :3d1+  -0.0000   0.0112  -0.0000   0.0000   0.0050  -0.0002   0.0003
  78 C_b :3d2+  -0.0049   0.0000   0.0056   0.0178   0.0000   0.0000  -0.0000
  94 C_c :1s     0.0456   0.0000  -0.0028   0.0003   0.0000   0.0000  -0.0000
  96 C_c :1s    -0.1353  -0.0000  -0.0213  -0.0129  -0.0000  -0.0000   0.0000
  97 C_c :1s    -0.0233   0.0000   0.1779   0.0422  -0.0000   0.0000  -0.0000
  98 C_c :2px   -0.2489  -0.0000  -0.0026   0.0001  -0.0000  -0.0000   0.0000
 100 C_c :2pz    0.0000  -0.0914   0.0000  -0.0000  -0.2527  -0.0306   0.3068
 104 C_c :2px   -0.0590  -0.0000   0.0096   0.0146  -0.0000  -0.0000   0.0000
 105 C_c :2py    0.0277   0.0000   0.0232  -0.0154  -0.0000   0.0000  -0.0000
 107 C_c :2px    0.0013  -0.0000  -0.0195  -0.0172  -0.0000  -0.0000   0.0000
 108 C_c :2py    0.0096  -0.0000  -0.0525   0.0186   0.0000  -0.0000   0.0000
 114 C_c :3d2+  -0.0106  -0.0000  -0.0001  -0.0000  -0.0000  -0.0000   0.0000
 115 C_c :3d2-  -0.0100   0.0000   0.0007   0.0009   0.0000   0.0000  -0.0000
 116 C_c :3d1-  -0.0000   0.0037  -0.0000   0.0000   0.0113   0.0009  -0.0076
 119 C_c :3d2+  -0.0166   0.0000   0.0002   0.0003   0.0000   0.0000  -0.0000
 120 C_c :3d2-   0.0513  -0.0000   0.0117   0.0030   0.0000   0.0000  -0.0000
 121 C_c :3d1-   0.0000  -0.0195   0.0000  -0.0000   0.0041   0.0017  -0.0123
 124 C_c :3d2+  -0.0334   0.0000   0.0049   0.0069   0.0000   0.0000  -0.0000
 140 C_d :1s     0.0687   0.0000   0.0053  -0.0002   0.0000   0.0000  -0.0000
 142 C_d :1s    -0.1722  -0.0000   0.0277  -0.0067  -0.0000  -0.0000   0.0000
 143 C_d :1s     0.0144  -0.0000  -0.0626  -0.0417   0.0000  -0.0000   0.0000
 144 C_d :2px    0.3623   0.0000   0.0089  -0.0003   0.0000   0.0000  -0.0000
 145 C_d :2py   -0.0555   0.0000  -0.0133   0.0009   0.0000   0.0000  -0.0000
 146 C_d :2pz    0.0000  -0.1418   0.0000   0.0000  -0.3171  -0.0284   0.2586
 150 C_d :2px    0.0539   0.0000   0.0238   0.0145   0.0000   0.0000  -0.0000
 151 C_d :2py    0.0230   0.0000  -0.0068  -0.0181  -0.0000   0.0000   0.0000
 154 C_d :2py    0.0128   0.0000   0.0015  -0.0424  -0.0000   0.0000  -0.0000
 156 C_d :3d2-  -0.0102  -0.0000  -0.0006   0.0000  -0.0000  -0.0000   0.0000
 160 C_d :3d2+  -0.0125  -0.0000   0.0001  -0.0000  -0.0000  -0.0000   0.0000
 161 C_d :3d2-  -0.0145   0.0000  -0.0007  -0.0005   0.0000   0.0000  -0.0000
 162 C_d :3d1-  -0.0000  -0.0010  -0.0000   0.0000  -0.0026  -0.0010   0.0111
 164 C_d :3d1+   0.0000  -0.0048   0.0000   0.0000  -0.0121  -0.0009   0.0069
 165 C_d :3d2+  -0.0200   0.0000   0.0005   0.0003   0.0000   0.0000  -0.0000
 166 C_d :3d2-   0.0315   0.0000   0.0176  -0.0126   0.0000   0.0000   0.0000
 167 C_d :3d1-   0.0000  -0.0236   0.0000  -0.0000   0.0087   0.0013  -0.0147
 169 C_d :3d1+  -0.0000   0.0122  -0.0000   0.0000  -0.0031  -0.0010   0.0083
 170 C_d :3d2+  -0.0465  -0.0000  -0.0277  -0.0216  -0.0000  -0.0000   0.0000
 186 C_e :1s     0.0813   0.0000  -0.0042   0.0007   0.0000   0.0000  -0.0000
 188 C_e :1s    -0.1667  -0.0000  -0.0454   0.0159  -0.0000  -0.0000   0.0000
 189 C_e :1s     0.0175   0.0000  -0.1081   0.0195   0.0000   0.0000  -0.0000
 190 C_e :2px   -0.3606  -0.0000  -0.0068  -0.0005  -0.0000  -0.0000   0.0000
 191 C_e :2py    0.0525   0.0000   0.0187  -0.0020   0.0000  -0.0000  -0.0000
 192 C_e :2pz   -0.0000  -0.2054  -0.0000   0.0000  -0.3116  -0.0082   0.0180
 196 C_e :2px   -0.0752   0.0000   0.0088   0.0026  -0.0000  -0.0000  -0.0000
 197 C_e :2py   -0.0041  -0.0000  -0.0239  -0.0334  -0.0000  -0.0000   0.0000
 199 C_e :2px   -0.0018  -0.0000   0.0448  -0.0058  -0.0000  -0.0000  -0.0000
 200 C_e :2py    0.0038  -0.0000  -0.0627   0.0516   0.0000  -0.0000   0.0000
 202 C_e :3d2-  -0.0111  -0.0000  -0.0009   0.0000  -0.0000  -0.0000   0.0000
 206 C_e :3d2+  -0.0131  -0.0000  -0.0000  -0.0000  -0.0000  -0.0000   0.0000
 207 C_e :3d2-  -0.0158  -0.0000  -0.0014   0.0007   0.0000  -0.0000   0.0000
 208 C_e :3d1-  -0.0000   0.0052  -0.0000   0.0000   0.0052  -0.0010   0.0132
 210 C_e :3d1+  -0.0000   0.0062   0.0000   0.0000   0.0114   0.0006  -0.0036
 211 C_e :3d2+  -0.0215   0.0000   0.0003  -0.0002  -0.0000   0.0000   0.0000
 212 C_e :3d2-   0.0440   0.0000   0.0238   0.0043  -0.0000   0.0000   0.0000
 213 C_e :3d1-   0.0000  -0.0196   0.0000  -0.0000   0.0266   0.0034  -0.0192
 216 C_e :3d2+  -0.0546  -0.0000  -0.0397  -0.0282  -0.0000  -0.0000   0.0000
 232 C_f :1s     0.0518   0.0000   0.0093  -0.0008   0.0000   0.0000  -0.0000
 234 C_f :1s    -0.1698  -0.0000  -0.0199   0.0111  -0.0000  -0.0000   0.0000
 235 C_f :1s    -0.0026   0.0000   0.1493  -0.0300   0.0000   0.0000  -0.0000
 236 C_f :2px    0.3063   0.0000   0.0179   0.0003   0.0000   0.0000  -0.0000
 237 C_f :2py   -0.0135   0.0000  -0.0266   0.0026   0.0000   0.0000  -0.0000
 238 C_f :2pz   -0.0000  -0.2509  -0.0000   0.0000  -0.2621   0.0085  -0.1538
 242 C_f :2px    0.0610  -0.0000  -0.0296   0.0026   0.0000  -0.0000   0.0000
 243 C_f :2py   -0.0258   0.0000   0.0167  -0.0181   0.0000   0.0000  -0.0000
 245 C_f :2px   -0.0021  -0.0000   0.0025   0.0142   0.0000  -0.0000  -0.0000
 246 C_f :2py    0.0005   0.0000   0.0652  -0.0184  -0.0000   0.0000  -0.0000
 248 C_f :3d2-  -0.0106  -0.0000  -0.0011   0.0000  -0.0000  -0.0000   0.0000
 252 C_f :3d2+  -0.0110  -0.0000   0.0003  -0.0001  -0.0000   0.0000   0.0000
 253 C_f :3d2-  -0.0133   0.0000  -0.0009  -0.0002   0.0000   0.0000  -0.0000
 257 C_f :3d2+  -0.0183  -0.0000  -0.0020  -0.0002  -0.0000  -0.0000   0.0000
 258 C_f :3d2-   0.0475   0.0000   0.0229  -0.0200  -0.0000  -0.0000  -0.0000
 259 C_f :3d1-   0.0000  -0.0199   0.0000  -0.0000   0.0317   0.0048  -0.0168
 261 C_f :3d1+   0.0000   0.0130   0.0000  -0.0000  -0.0108  -0.0004  -0.0014
 262 C_f :3d2+  -0.0462  -0.0000  -0.0096   0.0366  -0.0000  -0.0000   0.0000
 278 C_g :1s     0.0739   0.0000  -0.0096  -0.0007   0.0000   0.0000  -0.0000
 280 C_g :1s    -0.1050   0.0000   0.1138   0.0122  -0.0000  -0.0000  -0.0000
 281 C_g :1s     0.0091  -0.0000  -0.0356  -0.0007   0.0000   0.0000   0.0000
 282 C_g :2px   -0.2497  -0.0000  -0.0134  -0.0003  -0.0000  -0.0000   0.0000
 283 C_g :2py    0.0863  -0.0000   0.0384  -0.0018  -0.0000  -0.0000   0.0000
 284 C_g :2pz   -0.0000  -0.2975   0.0000   0.0000  -0.1070   0.0275  -0.2985
 288 C_g :2px   -0.0386  -0.0000  -0.0474   0.0058  -0.0000  -0.0000   0.0000
 289 C_g :2py   -0.0239   0.0000   0.0041   0.0009   0.0000   0.0000  -0.0000
 291 C_g :2px   -0.0019  -0.0000  -0.0111  -0.0159  -0.0000  -0.0000   0.0000
 292 C_g :2py    0.0023  -0.0000  -0.0594   0.0165  -0.0000  -0.0000   0.0000
 299 C_g :3d2-  -0.0127   0.0000   0.0002   0.0003   0.0000   0.0000  -0.0000
 303 C_g :3d2+  -0.0152  -0.0000   0.0002   0.0002  -0.0000  -0.0000   0.0000
 304 C_g :3d2-   0.0362  -0.0000   0.0583   0.0334   0.0000  -0.0000   0.0000
 305 C_g :3d1-  -0.0000  -0.0136  -0.0000   0.0000   0.0422  -0.0002  -0.0006
 307 C_g :3d1+  -0.0000  -0.0057  -0.0000   0.0000  -0.0104  -0.0012   0.0104
 308 C_g :3d2+  -0.0417  -0.0000   0.0134   0.0533  -0.0000  -0.0000   0.0000
 324 C_h :1s     0.0179   0.0000   0.0180  -0.0062   0.0000   0.0000  -0.0000
 326 C_h :1s    -0.0818  -0.0000  -0.0744   0.0324   0.0000   0.0000  -0.0000
 327 C_h :1s    -0.0089   0.0000   0.0138  -0.0196  -0.0000  -0.0000   0.0000
 328 C_h :2px    0.1401   0.0000   0.0323  -0.0096   0.0000   0.0000  -0.0000
 329 C_h :2py   -0.0181   0.0000  -0.0512   0.0083   0.0000   0.0000  -0.0000
 330 C_h :2pz    0.0000  -0.3245  -0.0000  -0.0000   0.0175   0.0305  -0.2826
 334 C_h :2px    0.0384   0.0000  -0.0196   0.0211   0.0000   0.0000  -0.0000
 335 C_h :2py   -0.0367  -0.0000  -0.0715   0.0008   0.0000   0.0000  -0.0000
 338 C_h :2py    0.0046  -0.0000  -0.0879   0.0281   0.0000  -0.0000   0.0000
 346 C_h :3d1-   0.0000  -0.0051   0.0000  -0.0000  -0.0054   0.0005  -0.0117
 348 C_h :3d1+  -0.0000  -0.0116  -0.0000   0.0000   0.0025   0.0011  -0.0083
 350 C_h :3d2-   0.0492   0.0000   0.0402   0.0049   0.0000   0.0000  -0.0000
 351 C_h :3d1-  -0.0000  -0.0108  -0.0000   0.0000   0.0424   0.0019   0.0061
 353 C_h :3d1+  -0.0000   0.0081  -0.0000   0.0000  -0.0101  -0.0015  -0.0134
 354 C_h :3d2+  -0.0317  -0.0000   0.0012   0.0192   0.0000   0.0000  -0.0000
 370 C_i :1s     0.0445   0.0000  -0.0242  -0.0086   0.0000   0.0000  -0.0000
 372 C_i :1s    -0.0190   0.0000  -0.1485  -0.1888   0.0000   0.0000  -0.0000
 373 C_i :1s     0.0115  -0.0000  -0.0878  -0.0290  -0.0000  -0.0000   0.0000
 374 C_i :2px   -0.1049  -0.0000  -0.0190   0.0224  -0.0000  -0.0000   0.0000
 375 C_i :2py    0.0676  -0.0000   0.0835   0.0125  -0.0000   0.0000   0.0000
 376 C_i :2pz    0.0000  -0.3238   0.0000  -0.0000   0.1919   0.0147  -0.0578
 380 C_i :2px   -0.0058  -0.0000  -0.0100   0.0353  -0.0000  -0.0000   0.0000
 381 C_i :2py   -0.0255  -0.0000   0.0961   0.0211  -0.0000  -0.0000   0.0000
 382 C_i :2pz   -0.0000   0.0134  -0.0000  -0.0000  -0.0023   0.0058   0.0026
 383 C_i :2px    0.0006  -0.0000  -0.0078   0.0421  -0.0000  -0.0000   0.0000
 384 C_i :2py   -0.0061   0.0000   0.0876  -0.0165  -0.0000   0.0000  -0.0000
 385 C_i :2pz    0.0000  -0.0047   0.0000  -0.0000   0.0033  -0.0121  -0.0015
 392 C_i :3d1-  -0.0000   0.0059  -0.0000   0.0000  -0.0096   0.0002  -0.0124
 394 C_i :3d1+   0.0000   0.0107  -0.0000  -0.0000  -0.0051  -0.0010   0.0062
 396 C_i :3d2-   0.0290   0.0000  -0.0071  -0.0422   0.0000   0.0000  -0.0000
 397 C_i :3d1-   0.0000   0.0014   0.0000  -0.0000   0.0350   0.0005   0.0176
 399 C_i :3d1+   0.0000  -0.0088   0.0000  -0.0000  -0.0128  -0.0053  -0.0036
 400 C_i :3d2+  -0.0287  -0.0000  -0.0447  -0.0326   0.0000   0.0000  -0.0000
 416 C_j :1s    -0.0062   0.0000   0.0354  -0.0060   0.0000   0.0000  -0.0000
 418 C_j :1s    -0.0515   0.0000   0.1575  -0.1313  -0.0000  -0.0000   0.0000
 419 C_j :1s    -0.0325   0.0000   0.1595   0.2165   0.0000   0.0000  -0.0000
 420 C_j :2px    0.0326   0.0000   0.0494  -0.0572   0.0000  -0.0000  -0.0000
 421 C_j :2py   -0.0207   0.0000  -0.1076  -0.0009   0.0000   0.0000  -0.0000
 422 C_j :2pz    0.0000  -0.3089   0.0000  -0.0000   0.2725   0.0009   0.1150
 426 C_j :2px    0.0050  -0.0000   0.0703  -0.0491   0.0000   0.0000   0.0000
 427 C_j :2py   -0.0229  -0.0000   0.0315   0.1587  -0.0000  -0.0000   0.0000
 428 C_j :2pz   -0.0000   0.0040  -0.0000   0.0000   0.0038  -0.0132  -0.0034
 429 C_j :2px   -0.0086   0.0000   0.0726  -0.0004   0.0000   0.0000  -0.0000
 430 C_j :2py    0.0106  -0.0000  -0.0995   0.1035  -0.0000  -0.0000   0.0000
 440 C_j :3d1+   0.0000  -0.0101   0.0000  -0.0000   0.0104   0.0002   0.0067
 442 C_j :3d2-   0.0337   0.0000   0.0086  -0.0092  -0.0000   0.0000   0.0000
 443 C_j :3d1-   0.0000   0.0008   0.0000  -0.0000   0.0294  -0.0010   0.0205
 444 C_j :3d0    0.0010   0.0000  -0.0064  -0.0151   0.0000  -0.0000   0.0000
 446 C_j :3d2+  -0.0136   0.0000  -0.0647  -0.0661  -0.0000  -0.0000  -0.0000
 462 C_k :1s     0.0226   0.0000  -0.0305   0.0481  -0.0000   0.0000   0.0000
 464 C_k :1s     0.0364   0.0000  -0.1555   0.2253  -0.0000  -0.0000   0.0000
 465 C_k :1s     0.0079   0.0000   0.1411  -0.0946  -0.0000   0.0000  -0.0000
 466 C_k :2px   -0.0277   0.0000  -0.0225   0.0706   0.0000   0.0000  -0.0000
 467 C_k :2py    0.0267   0.0000   0.1592  -0.0341   0.0000   0.0000  -0.0000
 468 C_k :2pz   -0.0000  -0.2245  -0.0000   0.0000   0.2700  -0.0187   0.2809
 470 C_k :2py   -0.0007   0.0000  -0.0101   0.0038  -0.0000  -0.0000   0.0000
 472 C_k :2px   -0.0050  -0.0000   0.0544  -0.1295   0.0000   0.0000   0.0000
 473 C_k :2py   -0.0065  -0.0000   0.0192   0.0290   0.0000  -0.0000   0.0000
 474 C_k :2pz    0.0000   0.0048   0.0000  -0.0000  -0.0083   0.0297  -0.0035
 475 C_k :2px   -0.0044  -0.0000   0.0047   0.0660   0.0000   0.0000  -0.0000
 476 C_k :2py    0.0046   0.0000  -0.0478  -0.1551  -0.0000  -0.0000  -0.0000
 477 C_k :2pz   -0.0000  -0.0022  -0.0000   0.0000   0.0032   0.0221   0.0076
 483 C_k :3d2-  -0.0017  -0.0000  -0.0027   0.0123   0.0000  -0.0000   0.0000
 484 C_k :3d1-  -0.0000   0.0014  -0.0000   0.0000  -0.0027   0.0001  -0.0105
 486 C_k :3d1+   0.0000   0.0088   0.0000  -0.0000  -0.0106  -0.0009  -0.0079
 487 C_k :3d2+  -0.0021  -0.0000   0.0041   0.0160  -0.0000  -0.0000   0.0000
 488 C_k :3d2-   0.0118   0.0000   0.0792  -0.0136  -0.0000  -0.0000   0.0000
 489 C_k :3d1-   0.0000   0.0105   0.0000  -0.0000   0.0138  -0.0021   0.0108
 491 C_k :3d1+  -0.0000  -0.0154  -0.0000   0.0000  -0.0031  -0.0077  -0.0051
 492 C_k :3d2+  -0.0129  -0.0000  -0.0187   0.0131  -0.0000  -0.0000   0.0000
 506 C_k :4f3+   0.0016  -0.0000   0.0036   0.0131  -0.0000   0.0000   0.0000
 508 C_l :1s    -0.0158   0.0000   0.1027   0.0162  -0.0000  -0.0000  -0.0000
 510 C_l :1s    -0.0091  -0.0000  -0.0035  -0.0447   0.0000  -0.0000   0.0000
 511 C_l :1s     0.0190  -0.0000  -0.4088  -0.0824  -0.0000  -0.0000   0.0000
 512 C_l :2px   -0.0108  -0.0000   0.1987   0.1598  -0.0000   0.0000  -0.0000
 513 C_l :2py   -0.0012  -0.0000  -0.2441  -0.0106  -0.0000  -0.0000   0.0000
 514 C_l :2pz   -0.0000  -0.1615  -0.0000   0.0000   0.2227  -0.0093   0.2919
 515 C_l :2px   -0.0008   0.0000  -0.0190   0.0006  -0.0000   0.0000  -0.0000
 516 C_l :2py   -0.0011  -0.0000   0.0239   0.0081   0.0000  -0.0000   0.0000
 518 C_l :2px    0.0001   0.0000   0.0155  -0.1090  -0.0000  -0.0000   0.0000
 519 C_l :2py   -0.0237  -0.0000   0.1521  -0.1541   0.0000   0.0000   0.0000
 520 C_l :2pz    0.0000   0.0173   0.0000  -0.0000   0.0030  -0.0092   0.0026
 521 C_l :2px    0.0031   0.0000  -0.0507  -0.0463  -0.0000  -0.0000   0.0000
 522 C_l :2py    0.0062  -0.0000  -0.0573   0.1140  -0.0000  -0.0000   0.0000
 523 C_l :2pz   -0.0000  -0.0048   0.0000   0.0000   0.0045  -0.0160   0.0064
 524 C_l :3d2-  -0.0003  -0.0000  -0.0107  -0.0034   0.0000  -0.0000   0.0000
 530 C_l :3d1-  -0.0000  -0.0087   0.0000   0.0000   0.0125  -0.0056   0.0133
 534 C_l :3d2-   0.0111  -0.0000   0.0850   0.0278   0.0000  -0.0000   0.0000
 535 C_l :3d1-   0.0000   0.0049   0.0000  -0.0000   0.0103  -0.0279   0.0101
 536 C_l :3d0    0.0002  -0.0000  -0.0017   0.0151   0.0000   0.0000   0.0000
 537 C_l :3d1+   0.0000   0.0148   0.0000  -0.0000  -0.0031  -0.0161  -0.0043
 554 N_a :1s     0.0184   0.0000   0.0009  -0.0001   0.0000   0.0000  -0.0000
 557 N_a :1s     0.0083   0.0000   0.0095   0.0187   0.0000   0.0000  -0.0000
 558 N_a :2px    0.0130   0.0000   0.0004  -0.0000   0.0000   0.0000  -0.0000
 559 N_a :2py   -0.0327   0.0000  -0.0020   0.0001  -0.0000  -0.0000   0.0000
 560 N_a :2pz   -0.0000   0.0968  -0.0000   0.0000   0.2029   0.0241  -0.2478
 569 N_a :2pz   -0.0000   0.0033  -0.0000   0.0000   0.0080   0.0014  -0.0137
 600 N_b :1s     0.0035  -0.0000   0.0265   0.0078   0.0000  -0.0000   0.0000
 602 N_b :1s     0.0013  -0.0000   0.1692   0.0341   0.0000  -0.0000   0.0000
 603 N_b :1s    -0.0053   0.0000   0.2854   0.0825  -0.0000   0.0000  -0.0000
 604 N_b :2px    0.0057  -0.0000  -0.2139  -0.0025   0.0000  -0.0000   0.0000
 605 N_b :2py    0.0012  -0.0000   0.1726   0.1275  -0.0000  -0.0000  -0.0000
 606 N_b :2pz   -0.0000   0.0315  -0.0000   0.0000  -0.0330   0.0088  -0.0254
 610 N_b :2px    0.0054   0.0000  -0.0394  -0.0227   0.0000   0.0000   0.0000
 611 N_b :2py   -0.0033   0.0000   0.0300   0.0236   0.0000   0.0000   0.0000
 612 N_b :2pz    0.0000  -0.0114   0.0000  -0.0000   0.0082  -0.0010   0.0090
 613 N_b :2px    0.0010  -0.0000  -0.0439  -0.0456   0.0000  -0.0000   0.0000
 614 N_b :2py   -0.0043   0.0000   0.0682  -0.0776   0.0000  -0.0000  -0.0000
 616 N_b :3d2-   0.0010   0.0000  -0.0221  -0.0079  -0.0000   0.0000  -0.0000
 617 N_b :3d1-  -0.0000  -0.0018  -0.0000   0.0000   0.0026  -0.0143   0.0017
 619 N_b :3d1+   0.0000   0.0014   0.0000  -0.0000  -0.0018  -0.0142  -0.0041
 620 N_b :3d2+   0.0006  -0.0000  -0.0049   0.0150   0.0000  -0.0000   0.0000
 621 N_b :3d2-   0.0023  -0.0000  -0.0605  -0.0216   0.0000  -0.0000   0.0000
 622 N_b :3d1-   0.0000  -0.0054   0.0000  -0.0000   0.0081  -0.0408   0.0062
 624 N_b :3d1+  -0.0000   0.0040  -0.0000   0.0000  -0.0056  -0.0405  -0.0128
 625 N_b :3d2+   0.0011  -0.0000  -0.0095   0.0320   0.0000  -0.0000  -0.0000
 626 N_b :3d2-  -0.0010  -0.0000   0.0120  -0.0068   0.0000  -0.0000   0.0000
 627 N_b :3d1-  -0.0000  -0.0025  -0.0000   0.0000   0.0031   0.0130   0.0059
 630 N_b :3d2+  -0.0042   0.0000   0.0367  -0.1201  -0.0000  -0.0000   0.0000
 638 N_b :4f3-  -0.0001  -0.0000   0.0119   0.0011   0.0000  -0.0000   0.0000
 648 O_a :1s    -0.0000   0.0000  -0.0040   0.0571  -0.0000   0.0000  -0.0000
 649 O_a :1s     0.0023  -0.0000  -0.0490   0.0749  -0.0000   0.0000   0.0000
 650 O_a :2px   -0.0156  -0.0000   0.3321   0.1732  -0.0000   0.0000   0.0000
 651 O_a :2py    0.0056  -0.0000  -0.2306  -0.7957   0.0000   0.0000   0.0000
 652 O_a :2pz    0.0000   0.0507   0.0000  -0.0000  -0.0609  -0.6364  -0.1504
 656 O_a :2px    0.0006   0.0000   0.0121   0.0230   0.0000  -0.0000   0.0000
 657 O_a :2py    0.0010   0.0000  -0.0222  -0.0975  -0.0000  -0.0000  -0.0000
 658 O_a :2pz   -0.0000   0.0052  -0.0000   0.0000  -0.0044  -0.0612  -0.0125
 659 O_a :2px   -0.0011  -0.0000   0.0242   0.0000  -0.0000   0.0000   0.0000
 660 O_a :2py    0.0008  -0.0000  -0.0251  -0.0527   0.0000   0.0000   0.0000
 661 O_a :2pz    0.0000  -0.0008   0.0000  -0.0000  -0.0018  -0.0464  -0.0082
 667 O_a :3d2-   0.0002   0.0000  -0.0034   0.0151  -0.0000   0.0000  -0.0000
 670 O_a :3d1+  -0.0000  -0.0018  -0.0000   0.0000   0.0017   0.0162   0.0036
 672 O_a :3d2-  -0.0005  -0.0000   0.0039   0.0311   0.0000   0.0000   0.0000
 674 O_a :3d0    0.0002   0.0000   0.0013   0.0101  -0.0000   0.0000  -0.0000
 675 O_a :3d1+   0.0000  -0.0023   0.0000  -0.0000   0.0019   0.0193   0.0039
 676 O_a :3d2+   0.0002  -0.0000  -0.0069  -0.0116  -0.0000   0.0000  -0.0000
 694 O_b :1s    -0.0015   0.0000   0.0154  -0.0277  -0.0000   0.0000  -0.0000
 695 O_b :1s    -0.0011   0.0000  -0.0163  -0.0942   0.0000  -0.0000   0.0000
 696 O_b :2px   -0.0415   0.0000   0.6650  -0.4918   0.0000   0.0000  -0.0000
 697 O_b :2py    0.0142  -0.0000  -0.3804  -0.0662  -0.0000   0.0000  -0.0000
 698 O_b :2pz    0.0000   0.0630   0.0000  -0.0000  -0.0880   0.6441  -0.0354
 702 O_b :2px   -0.0046   0.0000   0.0658  -0.0617  -0.0000  -0.0000   0.0000
 703 O_b :2py    0.0009   0.0000  -0.0288   0.0190   0.0000  -0.0000   0.0000
 704 O_b :2pz   -0.0000   0.0051  -0.0000   0.0000  -0.0046   0.0619   0.0004
 705 O_b :2px   -0.0032   0.0000   0.0471  -0.0473   0.0000   0.0000  -0.0000
 706 O_b :2py    0.0010  -0.0000  -0.0265  -0.0070  -0.0000   0.0000  -0.0000
 707 O_b :2pz    0.0000   0.0007   0.0000  -0.0000  -0.0032   0.0444   0.0003
 713 O_b :3d2-  -0.0007   0.0000   0.0052  -0.0139  -0.0000   0.0000  -0.0000
 714 O_b :3d1-   0.0000   0.0022   0.0000  -0.0000  -0.0025   0.0167  -0.0007
 717 O_b :3d2+  -0.0005   0.0000   0.0102   0.0020   0.0000  -0.0000   0.0000
 718 O_b :3d2-  -0.0014   0.0000   0.0173  -0.0205  -0.0000  -0.0000   0.0000
 719 O_b :3d1-  -0.0000   0.0024  -0.0000   0.0000  -0.0018   0.0202   0.0003
 722 O_b :3d2+  -0.0008  -0.0000   0.0163  -0.0099  -0.0000  -0.0000   0.0000
 737 H_a :1s    -0.0526  -0.0000  -0.0004  -0.0000  -0.0000  -0.0000   0.0000
 738 H_a :1s     0.0101   0.0000  -0.0007   0.0009   0.0000   0.0000  -0.0000
 739 H_a :1s    -0.0545   0.0000  -0.0122   0.0153   0.0000   0.0000  -0.0000
 747 H_a :2px    0.0160  -0.0000   0.0034  -0.0021  -0.0000  -0.0000   0.0000
 760 H_b :1s    -0.1648  -0.0000  -0.0012   0.0001  -0.0000  -0.0000   0.0000
 761 H_b :1s     0.0328   0.0000   0.0003  -0.0017   0.0000   0.0000  -0.0000
 762 H_b :1s     0.0701  -0.0000  -0.0153  -0.0320   0.0000   0.0000   0.0000
 771 H_b :2py    0.0126  -0.0000  -0.0001  -0.0072  -0.0000  -0.0000   0.0000
 783 H_c :1s    -0.2924  -0.0000  -0.0034   0.0003  -0.0000  -0.0000   0.0000
 784 H_c :1s     0.0607   0.0000  -0.0034  -0.0016   0.0000   0.0000  -0.0000
 785 H_c :1s     0.1396   0.0000  -0.0489  -0.0263   0.0000   0.0000  -0.0000
 786 H_c :1s    -0.0054   0.0000   0.0230   0.0117  -0.0000  -0.0000  -0.0000
 793 H_c :2px   -0.0151  -0.0000   0.0095   0.0054   0.0000   0.0000  -0.0000
 794 H_c :2py   -0.0286   0.0000  -0.0040  -0.0013  -0.0000  -0.0000  -0.0000
 806 H_d :1s    -0.3895  -0.0000  -0.0042  -0.0001  -0.0000  -0.0000   0.0000
 807 H_d :1s     0.0810   0.0000   0.0016   0.0008   0.0000   0.0000  -0.0000
 808 H_d :1s     0.2208   0.0000   0.0620   0.0594   0.0000   0.0000  -0.0000
 816 H_d :2px    0.0313   0.0000   0.0096   0.0114   0.0000   0.0000  -0.0000
 817 H_d :2py    0.0289   0.0000   0.0125  -0.0024   0.0000   0.0000  -0.0000
 829 H_e :1s    -0.3881  -0.0000  -0.0073  -0.0006  -0.0000  -0.0000   0.0000
 830 H_e :1s     0.0820   0.0000   0.0035  -0.0007   0.0000   0.0000  -0.0000
 831 H_e :1s     0.2183   0.0000   0.0485   0.0535   0.0000   0.0000  -0.0000
 832 H_e :1s    -0.0002  -0.0000  -0.0201  -0.0144   0.0000   0.0000   0.0000
 839 H_e :2px   -0.0284  -0.0000  -0.0019  -0.0063  -0.0000  -0.0000   0.0000
 840 H_e :2py   -0.0365   0.0000  -0.0173  -0.0110  -0.0000  -0.0000  -0.0000
 852 H_f :1s    -0.3475  -0.0000  -0.0082  -0.0014  -0.0000  -0.0000   0.0000
 853 H_f :1s     0.0726   0.0000  -0.0005   0.0018   0.0000  -0.0000  -0.0000
 854 H_f :1s     0.1792  -0.0000  -0.0341  -0.0446   0.0000   0.0000  -0.0000
 855 H_f :1s     0.0012   0.0000  -0.0103  -0.0067   0.0000  -0.0000   0.0000
 862 H_f :2px    0.0215  -0.0000  -0.0087  -0.0066   0.0000   0.0000  -0.0000
 863 H_f :2py    0.0332   0.0000   0.0086  -0.0182   0.0000   0.0000  -0.0000
 875 H_g :1s    -0.2440  -0.0000  -0.0131   0.0002  -0.0000  -0.0000   0.0000
 876 H_g :1s     0.0529   0.0000   0.0010   0.0000   0.0000   0.0000  -0.0000
 877 H_g :1s     0.1340   0.0000  -0.0420  -0.1130   0.0000   0.0000  -0.0000
 878 H_g :1s     0.0003   0.0000   0.0126   0.0234  -0.0000  -0.0000  -0.0000
 885 H_g :2px   -0.0150  -0.0000   0.0130   0.0179  -0.0000  -0.0000   0.0000
 886 H_g :2py   -0.0316   0.0000  -0.0196   0.0016  -0.0000  -0.0000  -0.0000
 898 H_h :1s    -0.1656  -0.0000  -0.0115   0.0079  -0.0000  -0.0000   0.0000
 899 H_h :1s     0.0347   0.0000   0.0023  -0.0061   0.0000   0.0000  -0.0000
 900 H_h :1s     0.0711   0.0000  -0.0660  -0.0257   0.0000   0.0000  -0.0000
 901 H_h :1s    -0.0023  -0.0000   0.0219   0.0069  -0.0000   0.0000  -0.0000
 908 H_h :2px    0.0030   0.0000  -0.0136   0.0007  -0.0000  -0.0000   0.0000
 909 H_h :2py    0.0246   0.0000   0.0162  -0.0125   0.0000   0.0000   0.0000
 910 H_h :2pz   -0.0000   0.0020  -0.0000   0.0000   0.0008  -0.0006  -0.0102
 921 H_i :1s    -0.0842  -0.0000  -0.0146   0.0288  -0.0000  -0.0000   0.0000
 922 H_i :1s     0.0192   0.0000   0.0085   0.0099   0.0000   0.0000  -0.0000
 923 H_i :1s     0.0499   0.0000   0.0713   0.0457   0.0000   0.0000  -0.0000
 924 H_i :1s    -0.0013  -0.0000  -0.0161  -0.0281   0.0000   0.0000   0.0000
 931 H_i :2px   -0.0033   0.0000  -0.0020  -0.0109  -0.0000   0.0000  -0.0000
 932 H_i :2py   -0.0222  -0.0000  -0.0229   0.0076  -0.0000  -0.0000  -0.0000
 944 H_j :1s    -0.0434  -0.0000  -0.0014   0.0617  -0.0000   0.0000   0.0000
 945 H_j :1s     0.0101  -0.0000  -0.0041  -0.0027   0.0000  -0.0000   0.0000
 946 H_j :1s    -0.0042  -0.0000   0.1322   0.0877   0.0000  -0.0000   0.0000
 954 H_j :2px   -0.0071  -0.0000   0.0173   0.0215   0.0000  -0.0000   0.0000
 955 H_j :2py    0.0113   0.0000   0.0334  -0.0014   0.0000   0.0000   0.0000
 967 H_k :1s    -0.0102   0.0000  -0.0198   0.0507   0.0000   0.0000  -0.0000
 968 H_k :1s     0.0018  -0.0000  -0.0031  -0.0445  -0.0000  -0.0000  -0.0000
 969 H_k :1s     0.0181   0.0000  -0.1134   0.0765  -0.0000   0.0000  -0.0000
 970 H_k :1s     0.0019   0.0000   0.0189   0.0064  -0.0000  -0.0000  -0.0000
 977 H_k :2px   -0.0019   0.0000   0.0341  -0.0282   0.0000  -0.0000   0.0000
 978 H_k :2py   -0.0094  -0.0000  -0.0341   0.0151  -0.0000  -0.0000   0.0000
 990 H_l :1s     0.0009  -0.0000  -0.0751  -0.1466   0.0000   0.0000  -0.0000
 991 H_l :1s    -0.0004   0.0000   0.0022   0.0244  -0.0000  -0.0000   0.0000
 992 H_l :1s    -0.0313   0.0000  -0.0172  -0.1026  -0.0000   0.0000  -0.0000
 993 H_l :1s     0.0029  -0.0000  -0.0235   0.0079  -0.0000  -0.0000   0.0000
1000 H_l :2px   -0.0077   0.0000  -0.0115  -0.0316  -0.0000   0.0000  -0.0000
1001 H_l :2py   -0.0002   0.0000   0.0257  -0.0106  -0.0000   0.0000   0.0000
1002 H_l :2pz   -0.0000   0.0106  -0.0000   0.0000   0.0010  -0.0162   0.0008
1036 H_n :1s    -0.0185   0.0000  -0.0015   0.0001  -0.0000  -0.0000   0.0000
1045 H_n :2pz   -0.0000   0.0044  -0.0000  -0.0000   0.0085   0.0010  -0.0103

    Orbital        56       57       58       59       60       61       62
   2 C_a :1s    -0.0000   0.0000   0.0000   0.0232  -0.0000  -0.0238  -0.0023
   4 C_a :1s    -0.0000   0.0000   0.0000  -1.9863   0.0000   0.2403   0.6074
   5 C_a :1s     0.0000  -0.0000  -0.0000   0.0652  -0.0000  16.6381  10.6394
   6 C_a :2px    0.0000  -0.0000  -0.0000   0.0615   0.0000  -0.0356   0.0005
   7 C_a :2py    0.0000  -0.0000  -0.0000  -0.0159   0.0000  -0.0138   0.0116
   8 C_a :2pz    0.1176   0.2063   0.2447  -0.0000  -0.1704  -0.0000   0.0000
   9 C_a :2px   -0.0000   0.0000   0.0000  -0.0235  -0.0000   0.0027  -0.0023
  10 C_a :2py   -0.0000   0.0000   0.0000   0.0282  -0.0000  -0.0278  -0.0049
  12 C_a :2px    0.0000  -0.0000  -0.0000   1.1259  -0.0000   0.3989   1.0518
  13 C_a :2py   -0.0000   0.0000   0.0000   0.2018  -0.0000   0.1717   0.6898
  14 C_a :2pz    0.0019  -0.0012   0.0056  -0.0000  -0.0357   0.0000  -0.0000
  15 C_a :2px    0.0000   0.0000   0.0000  -0.1825   0.0000  -3.4303  -0.9369
  16 C_a :2py    0.0000  -0.0000  -0.0000   4.8081  -0.0000  -1.9013  -2.4344
  17 C_a :2pz    0.0054   0.0128   0.0245  -0.0000  -0.1398  -0.0000   0.0000
  19 C_a :3d1-  -0.0102  -0.0112  -0.0097   0.0000   0.0019  -0.0000   0.0000
  23 C_a :3d2-  -0.0000   0.0000   0.0000  -0.0676  -0.0000  -0.0091   0.0108
  24 C_a :3d1-  -0.0261  -0.0285  -0.0243  -0.0000   0.0006   0.0000  -0.0000
  25 C_a :3d0    0.0000  -0.0000  -0.0000   0.0265   0.0000   0.0037  -0.0412
  27 C_a :3d2+  -0.0000   0.0000   0.0000  -0.0835  -0.0000   0.0137   0.0425
  28 C_a :3d2-  -0.0000   0.0000   0.0000  -0.8039  -0.0000  -0.3142   0.3104
  29 C_a :3d1-  -0.0123  -0.0149  -0.0136  -0.0000  -0.0181   0.0000  -0.0000
  30 C_a :3d0   -0.0000   0.0000   0.0000   0.1553   0.0000   0.0010  -0.3573
  32 C_a :3d2+  -0.0000   0.0000   0.0000  -0.9080   0.0000   0.1004   0.4378
  40 C_a :4f3-   0.0000  -0.0000  -0.0000   0.0226   0.0000   0.0008  -0.0058
  42 C_a :4f1-   0.0000  -0.0000  -0.0000  -0.0136  -0.0000  -0.0210  -0.0069
  44 C_a :4f1+  -0.0000   0.0000   0.0000  -0.0045   0.0000   0.0030  -0.0259
  46 C_a :4f3+   0.0000  -0.0000  -0.0000  -0.0305   0.0000   0.0113   0.0638
  48 C_b :1s    -0.0000   0.0000   0.0000   0.0181  -0.0000   0.0306   0.0084
  50 C_b :1s    -0.0000  -0.0000  -0.0000   0.1242  -0.0000  -0.5302  -0.7097
  51 C_b :1s     0.0000   0.0000   0.0000   1.6890   0.0000 -22.3100  -5.2506
  52 C_b :2px   -0.0000   0.0000   0.0000  -0.0271  -0.0000  -0.0362  -0.0260
  54 C_b :2pz    0.3035   0.3284   0.2670   0.0000  -0.0055   0.0000   0.0000
  55 C_b :2px    0.0000  -0.0000  -0.0000   0.0305   0.0000   0.0221   0.0020
  56 C_b :2py    0.0000  -0.0000  -0.0000   0.0121   0.0000   0.0464  -0.0215
  58 C_b :2px   -0.0000   0.0000   0.0000  -0.2954  -0.0000   0.8297  -0.8375
  59 C_b :2py    0.0000  -0.0000  -0.0000   0.8212   0.0000  -0.0344   0.4875
  60 C_b :2pz    0.0126   0.0249   0.0274  -0.0000   0.0029  -0.0000  -0.0000
  61 C_b :2px   -0.0000   0.0000   0.0000  -0.7604   0.0000  -3.9584  -1.1909
  62 C_b :2py   -0.0000   0.0000   0.0000   1.4930   0.0000  -3.7509  -3.3288
  63 C_b :2pz    0.0135   0.0265   0.0453   0.0000   0.0073   0.0000   0.0000
  69 C_b :3d2-  -0.0000   0.0000   0.0000  -0.0424  -0.0000   0.0065   0.0328
  70 C_b :3d1-  -0.0003   0.0114   0.0205   0.0000  -0.0188   0.0000   0.0000
  71 C_b :3d0    0.0000  -0.0000  -0.0000  -0.0179   0.0000   0.0239   0.0030
  73 C_b :3d2+  -0.0000   0.0000   0.0000  -0.0739  -0.0000  -0.0485   0.0549
  74 C_b :3d2-  -0.0000   0.0000   0.0000  -0.9867   0.0000  -0.5354   0.7543
  75 C_b :3d1-  -0.0072   0.0024   0.0105   0.0000  -0.0296  -0.0000   0.0000
  76 C_b :3d0   -0.0000   0.0000   0.0000  -0.1612  -0.0000   0.2927  -0.0490
  78 C_b :3d2+  -0.0000   0.0000   0.0000  -1.4310   0.0000  -0.4410  -0.4528
  86 C_b :4f3-   0.0000  -0.0000  -0.0000  -0.0634   0.0000   0.0265   0.0194
  88 C_b :4f1-   0.0000  -0.0000  -0.0000  -0.0081   0.0000   0.0095  -0.0110
  90 C_b :4f1+  -0.0000   0.0000   0.0000   0.0082  -0.0000  -0.0149   0.0184
[...]
      ----------------------------------------------------------------
         1    1.12346D-01  0.00D+00  1.12D-01  5.30D+01    0.00000D+00
         2    1.16475D-01  0.00D+00  1.16D-01  5.51D+01    2.01000D-02
         3    1.30749D-01  0.00D+00  1.31D-01  6.23D+01    4.02000D-02

 ** RSPCTL MICROITERATION NUMBER    7

       No.  Residual tot.,    conf., and orb.    Bnorm      Frequency 
      ----------------------------------------------------------------
         1    4.00562D-02  0.00D+00  4.01D-02  5.30D+01    0.00000D+00
         2    4.19993D-02  0.00D+00  4.20D-02  5.51D+01    2.01000D-02
         3    4.88145D-02  0.00D+00  4.88D-02  6.23D+01    4.02000D-02

 *** THE REQUESTED    3 SOLUTION VECTORS CONVERGED

 Convergence of RSP solution vectors, threshold = 1.00D-03
 ---------------------------------------------------------------
 (dimension of paired reduced space:   42)
 RSP solution vector no.    1; norm of residual   7.56D-04
 RSP solution vector no.    2; norm of residual   7.62D-04
 RSP solution vector no.    3; norm of residual   7.84D-04

 *** RSPCTL MICROITERATIONS CONVERGED

@ QRLRVE: SINGLET SOLUTION FOR SYMMETRY    1  ( A  )    LABEL   YDIPLEN     FREQUENCY   0.000000D+00

@ QRLRVE:  << XDIPLEN  ; YDIPLEN  >> (   0.00000):    -96.1217876345    

@ QRLRVE:  << YDIPLEN  ; YDIPLEN  >> (   0.00000):     768.119130533    

@ QRLRVE:  << ZDIPLEN  ; YDIPLEN  >> (   0.00000):    2.310846818132E-13

@ QRLRVE: SINGLET SOLUTION FOR SYMMETRY    1  ( A  )    LABEL   YDIPLEN     FREQUENCY   0.201000D-01

@ QRLRVE:  << XDIPLEN  ; YDIPLEN  >> (   0.02010):    -98.9343633227    

@ QRLRVE:  << YDIPLEN  ; YDIPLEN  >> (   0.02010):     786.054223886    

@ QRLRVE:  << ZDIPLEN  ; YDIPLEN  >> (   0.02010):    2.474544527579E-13

@ QRLRVE: SINGLET SOLUTION FOR SYMMETRY    1  ( A  )    LABEL   YDIPLEN     FREQUENCY   0.402000D-01

@ QRLRVE:  << XDIPLEN  ; YDIPLEN  >> (   0.04020):    -108.442526512    

@ QRLRVE:  << YDIPLEN  ; YDIPLEN  >> (   0.04020):     846.490729486    

@ QRLRVE:  << ZDIPLEN  ; YDIPLEN  >> (   0.04020):    3.030419675669E-13


 QRLRVE -- linear response calculation for symmetry  1  ( A  )
 QRLRVE -- operator label : ZDIPLEN 
 QRLRVE -- operator spin  :   0
 QRLRVE -- frequencies :  0.000000  0.020100  0.040200



 ---  SOLVING SETS OF LINEAR EQUATIONS FOR LINEAR RESPONSE PROPERTIES ---

 Operator symmetry = 1  ( A  ); triplet =   F


 ** RSPCTL MICROITERATION NUMBER    1

       No.  Residual tot.,    conf., and orb.    Bnorm      Frequency 
      ----------------------------------------------------------------
         1    3.26841D+00  0.00D+00  3.27D+00  8.06D+00    0.00000D+00
         2    3.27143D+00  0.00D+00  3.27D+00  8.09D+00    2.01000D-02
         3    3.28057D+00  0.00D+00  3.28D+00  8.17D+00    4.02000D-02

 ** RSPCTL MICROITERATION NUMBER    2

       No.  Residual tot.,    conf., and orb.    Bnorm      Frequency 
      ----------------------------------------------------------------
         1    8.08659D-01  0.00D+00  8.09D-01  8.46D+00    0.00000D+00
         2    8.10860D-01  0.00D+00  8.11D-01  8.49D+00    2.01000D-02
         3    8.17550D-01  0.00D+00  8.18D-01  8.58D+00    4.02000D-02

 ** RSPCTL MICROITERATION NUMBER    3

       No.  Residual tot.,    conf., and orb.    Bnorm      Frequency 
      ----------------------------------------------------------------
         1    1.65837D-01  0.00D+00  1.66D-01  8.49D+00    0.00000D+00
         2    1.67032D-01  0.00D+00  1.67D-01  8.52D+00    2.01000D-02
         3    1.70692D-01  0.00D+00  1.71D-01  8.61D+00    4.02000D-02

 ** RSPCTL MICROITERATION NUMBER    4

       No.  Residual tot.,    conf., and orb.    Bnorm      Frequency 
      ----------------------------------------------------------------
         1    4.80492D-02  0.00D+00  4.80D-02  8.49D+00    0.00000D+00
         2    4.88890D-02  0.00D+00  4.89D-02  8.52D+00    2.01000D-02
         3    5.15426D-02  0.00D+00  5.15D-02  8.61D+00    4.02000D-02

 ** RSPCTL MICROITERATION NUMBER    5

       No.  Residual tot.,    conf., and orb.    Bnorm      Frequency 
      ----------------------------------------------------------------
         1    1.79876D-02  0.00D+00  1.80D-02  8.49D+00    0.00000D+00
         2    1.85718D-02  0.00D+00  1.86D-02  8.52D+00    2.01000D-02
         3    2.04259D-02  0.00D+00  2.04D-02  8.62D+00    4.02000D-02

 ** RSPCTL MICROITERATION NUMBER    6

       No.  Residual tot.,    conf., and orb.    Bnorm      Frequency 
      ----------------------------------------------------------------
         1    6.70003D-03  0.00D+00  6.70D-03  8.49D+00    0.00000D+00
         2    6.99845D-03  0.00D+00  7.00D-03  8.52D+00    2.01000D-02
         3    7.96171D-03  0.00D+00  7.96D-03  8.62D+00    4.02000D-02

 *** THE REQUESTED    3 SOLUTION VECTORS CONVERGED

 Convergence of RSP solution vectors, threshold = 1.00D-03
 ---------------------------------------------------------------
 (dimension of paired reduced space:   36)
 RSP solution vector no.    1; norm of residual   7.89D-04
 RSP solution vector no.    2; norm of residual   8.21D-04
 RSP solution vector no.    3; norm of residual   9.24D-04

 *** RSPCTL MICROITERATIONS CONVERGED

@ QRLRVE: SINGLET SOLUTION FOR SYMMETRY    1  ( A  )    LABEL   ZDIPLEN     FREQUENCY   0.000000D+00

@ QRLRVE:  << XDIPLEN  ; ZDIPLEN  >> (   0.00000):   -1.831883169133E-14

@ QRLRVE:  << YDIPLEN  ; ZDIPLEN  >> (   0.00000):    1.857551495308E-13

@ QRLRVE:  << ZDIPLEN  ; ZDIPLEN  >> (   0.00000):     103.982917419    

@ QRLRVE: SINGLET SOLUTION FOR SYMMETRY    1  ( A  )    LABEL   ZDIPLEN     FREQUENCY   0.201000D-01

@ QRLRVE:  << XDIPLEN  ; ZDIPLEN  >> (   0.02010):   -2.022198869715E-14

@ QRLRVE:  << YDIPLEN  ; ZDIPLEN  >> (   0.02010):    1.976090242686E-13

@ QRLRVE:  << ZDIPLEN  ; ZDIPLEN  >> (   0.02010):     104.129560736    

@ QRLRVE: SINGLET SOLUTION FOR SYMMETRY    1  ( A  )    LABEL   ZDIPLEN     FREQUENCY   0.402000D-01

@ QRLRVE:  << XDIPLEN  ; ZDIPLEN  >> (   0.04020):   -2.660486291633E-14

@ QRLRVE:  << YDIPLEN  ; ZDIPLEN  >> (   0.04020):    2.374236384910E-13

@ QRLRVE:  << ZDIPLEN  ; ZDIPLEN  >> (   0.04020):     104.574097666    
 
 ======================================================================
 ---  L I N E A R   R E S P O N S E   F U N C T I O N S --- 
 ======================================================================

 The -<<A;B>>(omega_b) functions from vectors generated
 in a *QUADRA calculation of <<A;B,C>>(omega_b,omega_c)

 Note: the accuracy of off-diagonal elements will be linear
 in the convergence threshold THCLR =  1.00D-03


 Perturbation symmetry.     KSYMOP:           1
 Perturbation spin symmetry.TRPLET:           F
 Orbital variables.         KZWOPT:       57768
 Configuration variables.   KZCONF:           0
 Total number of variables. KZVAR :       57768

@ Singlet linear response function in a.u.

@ A operator, symmetry, frequency:   XDIPLEN    1 -0.000000
@ B operator, symmetry, frequency:   XDIPLEN    1  0.000000

@ Value of linear response -<<A;B>>(omega):     160.771784116827

@ Singlet linear response function in a.u.

@ A operator, symmetry, frequency:   YDIPLEN    1 -0.000000
@ B operator, symmetry, frequency:   XDIPLEN    1  0.000000

@ Value of linear response -<<A;B>>(omega):     -96.132280247587

@ Singlet linear response function in a.u.

@ A operator, symmetry, frequency:   ZDIPLEN    1 -0.000000
@ B operator, symmetry, frequency:   XDIPLEN    1  0.000000

@ Value of linear response -<<A;B>>(omega):      -0.000000000000

@ Singlet linear response function in a.u.

@ A operator, symmetry, frequency:   XDIPLEN    1 -0.020100
@ B operator, symmetry, frequency:   XDIPLEN    1  0.020100

@ Value of linear response -<<A;B>>(omega):     161.468290750294

@ Singlet linear response function in a.u.

@ A operator, symmetry, frequency:   YDIPLEN    1 -0.020100
@ B operator, symmetry, frequency:   XDIPLEN    1  0.020100

@ Value of linear response -<<A;B>>(omega):     -98.945710472572

@ Singlet linear response function in a.u.

@ A operator, symmetry, frequency:   ZDIPLEN    1 -0.020100
@ B operator, symmetry, frequency:   XDIPLEN    1  0.020100

@ Value of linear response -<<A;B>>(omega):      -0.000000000000

@ Singlet linear response function in a.u.

@ A operator, symmetry, frequency:   XDIPLEN    1 -0.000000
@ B operator, symmetry, frequency:   YDIPLEN    1  0.000000

@ Value of linear response -<<A;B>>(omega):     -96.121787634504

@ Singlet linear response function in a.u.

@ A operator, symmetry, frequency:   YDIPLEN    1 -0.000000
@ B operator, symmetry, frequency:   YDIPLEN    1  0.000000

@ Value of linear response -<<A;B>>(omega):     768.119130532557

@ Singlet linear response function in a.u.

@ A operator, symmetry, frequency:   ZDIPLEN    1 -0.000000
@ B operator, symmetry, frequency:   YDIPLEN    1  0.000000

@ Value of linear response -<<A;B>>(omega):       0.000000000000

@ Singlet linear response function in a.u.

@ A operator, symmetry, frequency:   XDIPLEN    1 -0.020100
@ B operator, symmetry, frequency:   YDIPLEN    1  0.020100

@ Value of linear response -<<A;B>>(omega):     -98.934363322726

@ Singlet linear response function in a.u.

@ A operator, symmetry, frequency:   YDIPLEN    1 -0.020100
@ B operator, symmetry, frequency:   YDIPLEN    1  0.020100

@ Value of linear response -<<A;B>>(omega):     786.054223886479

@ Singlet linear response function in a.u.

@ A operator, symmetry, frequency:   ZDIPLEN    1 -0.020100
@ B operator, symmetry, frequency:   YDIPLEN    1  0.020100

@ Value of linear response -<<A;B>>(omega):       0.000000000000

@ Singlet linear response function in a.u.

@ A operator, symmetry, frequency:   XDIPLEN    1 -0.000000
@ B operator, symmetry, frequency:   ZDIPLEN    1  0.000000

@ Value of linear response -<<A;B>>(omega):      -0.000000000000

@ Singlet linear response function in a.u.

@ A operator, symmetry, frequency:   YDIPLEN    1 -0.000000
@ B operator, symmetry, frequency:   ZDIPLEN    1  0.000000

@ Value of linear response -<<A;B>>(omega):       0.000000000000

@ Singlet linear response function in a.u.

@ A operator, symmetry, frequency:   ZDIPLEN    1 -0.000000
@ B operator, symmetry, frequency:   ZDIPLEN    1  0.000000

@ Value of linear response -<<A;B>>(omega):     103.982917419132

@ Singlet linear response function in a.u.

@ A operator, symmetry, frequency:   XDIPLEN    1 -0.020100
@ B operator, symmetry, frequency:   ZDIPLEN    1  0.020100

@ Value of linear response -<<A;B>>(omega):      -0.000000000000

@ Singlet linear response function in a.u.

@ A operator, symmetry, frequency:   YDIPLEN    1 -0.020100
@ B operator, symmetry, frequency:   ZDIPLEN    1  0.020100

@ Value of linear response -<<A;B>>(omega):       0.000000000000

@ Singlet linear response function in a.u.

@ A operator, symmetry, frequency:   ZDIPLEN    1 -0.020100
@ B operator, symmetry, frequency:   ZDIPLEN    1  0.020100

@ Value of linear response -<<A;B>>(omega):     104.129560735779


  Results from quadratic response calculation
 --------------------------------------------

@ B-freq = 0.000000  C-freq = 0.000000     beta(X;X,X) =   -505.88160120
@ B-freq = 0.000000  C-freq = 0.000000     beta(Y;X,X) =   2101.08586272
@ B-freq = 0.000000  C-freq = 0.000000     beta(Z;X,X) =      0.00000000
@ B-freq = 0.020100  C-freq = 0.000000     beta(X;X,X) =   -528.88073197
@ B-freq = 0.020100  C-freq = 0.000000     beta(Y;X,X) =   2205.24434274
@ B-freq = 0.020100  C-freq = 0.000000     beta(Z;X,X) =      0.00000000
@ B-freq = 0.000000  C-freq = 0.000000     beta(X;Y,X) = beta(Y,X,X)
@ B-freq = 0.000000  C-freq = 0.000000     beta(X;Y,X) =   2101.08600976
@ B-freq = 0.000000  C-freq = 0.000000     beta(Y;Y,X) =  -7175.01058524
@ B-freq = 0.000000  C-freq = 0.000000     beta(Z;Y,X) =     -0.00000000
@ B-freq = 0.020100  C-freq = 0.000000     beta(X;Y,X) =   2205.24449752
@ B-freq = 0.020100  C-freq = 0.000000     beta(Y;Y,X) =  -7616.23571217
@ B-freq = 0.020100  C-freq = 0.000000     beta(Z;Y,X) =     -0.00000000
@ B-freq = 0.000000  C-freq = 0.000000     beta(X;Z,X) = beta(Z,X,X)
@ B-freq = 0.000000  C-freq = 0.000000     beta(Y;Z,X) = beta(Z,Y,X)
@ B-freq = 0.000000  C-freq = 0.000000     beta(X;Z,X) =      0.00000000
@ B-freq = 0.000000  C-freq = 0.000000     beta(Y;Z,X) =     -0.00000000
@ B-freq = 0.000000  C-freq = 0.000000     beta(Z;Z,X) =     14.52580105
@ B-freq = 0.020100  C-freq = 0.000000     beta(X;Z,X) =      0.00000000
@ B-freq = 0.020100  C-freq = 0.000000     beta(Y;Z,X) =     -0.00000000
@ B-freq = 0.020100  C-freq = 0.000000     beta(Z;Z,X) =     14.67847207
@ B-freq = 0.000000  C-freq = 0.020100     beta(X;X,X) = beta(X,X,X)
@ B-freq = 0.000000  C-freq = 0.020100     beta(Y;X,X) = beta(Y,X,X)
@ B-freq = 0.000000  C-freq = 0.020100     beta(Z;X,X) = beta(Z,X,X)
@ B-freq = 0.020100  C-freq = 0.020100     beta(X;X,X) =   -580.44107604
@ B-freq = 0.020100  C-freq = 0.020100     beta(Y;X,X) =   2468.97469194
@ B-freq = 0.020100  C-freq = 0.020100     beta(Z;X,X) =      0.00000000
@ B-freq = 0.000000  C-freq = 0.020100     beta(X;Y,X) =   2181.05859503
@ B-freq = 0.000000  C-freq = 0.020100     beta(Y;Y,X) =  -7505.98638792
@ B-freq = 0.000000  C-freq = 0.020100     beta(Z;Y,X) =     -0.00000000
@ B-freq = 0.020100  C-freq = 0.020100     beta(X;Y,X) =   2385.97062846
@ B-freq = 0.020100  C-freq = 0.020100     beta(Y;Y,X) =  -8502.47894507
@ B-freq = 0.020100  C-freq = 0.020100     beta(Z;Y,X) =     -0.00000000
@ B-freq = 0.000000  C-freq = 0.020100     beta(X;Z,X) =      0.00000000
@ B-freq = 0.000000  C-freq = 0.020100     beta(Y;Z,X) =     -0.00000000
@ B-freq = 0.000000  C-freq = 0.020100     beta(Z;Z,X) =     14.70860073
@ B-freq = 0.020100  C-freq = 0.020100     beta(X;Z,X) =      0.00000000
@ B-freq = 0.020100  C-freq = 0.020100     beta(Y;Z,X) =     -0.00000000
@ B-freq = 0.020100  C-freq = 0.020100     beta(Z;Z,X) =     15.02638795
@ B-freq = 0.000000  C-freq = 0.000000     beta(X;X,Y) = beta(Y,X,X)
@ B-freq = 0.000000  C-freq = 0.000000     beta(Y;X,Y) = beta(Y,Y,X)
@ B-freq = 0.000000  C-freq = 0.000000     beta(Z;X,Y) = beta(Z,Y,X)
@ B-freq = 0.020100  C-freq = 0.000000     beta(X;X,Y) = beta(X,Y,X)
@ B-freq = 0.020100  C-freq = 0.000000     beta(Y;X,Y) = beta(Y,Y,X)
@ B-freq = 0.020100  C-freq = 0.000000     beta(Z;X,Y) = beta(Z,Y,X)
@ B-freq = 0.000000  C-freq = 0.000000     beta(X;Y,Y) = beta(Y,Y,X)
@ B-freq = 0.000000  C-freq = 0.000000     beta(X;Y,Y) =  -7175.01160460
@ B-freq = 0.000000  C-freq = 0.000000     beta(Y;Y,Y) =  18849.56393620
@ B-freq = 0.000000  C-freq = 0.000000     beta(Z;Y,Y) =      0.00000000
@ B-freq = 0.020100  C-freq = 0.000000     beta(X;Y,Y) =  -7505.98746213
@ B-freq = 0.020100  C-freq = 0.000000     beta(Y;Y,Y) =  20046.88567124
@ B-freq = 0.020100  C-freq = 0.000000     beta(Z;Y,Y) =      0.00000000
@ B-freq = 0.000000  C-freq = 0.000000     beta(X;Z,Y) = beta(Z,Y,X)
@ B-freq = 0.000000  C-freq = 0.000000     beta(Y;Z,Y) = beta(Z,Y,Y)
@ B-freq = 0.000000  C-freq = 0.000000     beta(X;Z,Y) =     -0.00000000
@ B-freq = 0.000000  C-freq = 0.000000     beta(Y;Z,Y) =      0.00000000
@ B-freq = 0.000000  C-freq = 0.000000     beta(Z;Z,Y) =    -40.38944748
@ B-freq = 0.020100  C-freq = 0.000000     beta(X;Z,Y) =     -0.00000000
@ B-freq = 0.020100  C-freq = 0.000000     beta(Y;Z,Y) =      0.00000000
@ B-freq = 0.020100  C-freq = 0.000000     beta(Z;Z,Y) =    -41.08394784
@ B-freq = 0.000000  C-freq = 0.020100     beta(X;X,Y) = beta(X,Y,X)
@ B-freq = 0.000000  C-freq = 0.020100     beta(Y;X,Y) = beta(Y,Y,X)
@ B-freq = 0.000000  C-freq = 0.020100     beta(Z;X,Y) = beta(Z,Y,X)
@ B-freq = 0.020100  C-freq = 0.020100     beta(X;X,Y) = beta(X,Y,X)
@ B-freq = 0.020100  C-freq = 0.020100     beta(Y;X,Y) = beta(Y,Y,X)
@ B-freq = 0.020100  C-freq = 0.020100     beta(Z;X,Y) = beta(Z,Y,X)
@ B-freq = 0.000000  C-freq = 0.020100     beta(X;Y,Y) = beta(X,Y,Y)
@ B-freq = 0.000000  C-freq = 0.020100     beta(Y;Y,Y) = beta(Y,Y,Y)
@ B-freq = 0.000000  C-freq = 0.020100     beta(Z;Y,Y) = beta(Z,Y,Y)
@ B-freq = 0.020100  C-freq = 0.020100     beta(X;Y,Y) =  -8125.41058029
@ B-freq = 0.020100  C-freq = 0.020100     beta(Y;Y,Y) =  22793.81182963
@ B-freq = 0.020100  C-freq = 0.020100     beta(Z;Y,Y) =      0.00000000
@ B-freq = 0.000000  C-freq = 0.020100     beta(X;Z,Y) =     -0.00000000
@ B-freq = 0.000000  C-freq = 0.020100     beta(Y;Z,Y) =      0.00000000
@ B-freq = 0.000000  C-freq = 0.020100     beta(Z;Z,Y) =    -41.27529386
@ B-freq = 0.020100  C-freq = 0.020100     beta(X;Z,Y) =     -0.00000000
@ B-freq = 0.020100  C-freq = 0.020100     beta(Y;Z,Y) =      0.00000000
@ B-freq = 0.020100  C-freq = 0.020100     beta(Z;Z,Y) =    -42.73785136
@ B-freq = 0.000000  C-freq = 0.000000     beta(X;X,Z) = beta(Z,X,X)
@ B-freq = 0.000000  C-freq = 0.000000     beta(Y;X,Z) = beta(Z,Y,X)
@ B-freq = 0.000000  C-freq = 0.000000     beta(Z;X,Z) = beta(Z,Z,X)
@ B-freq = 0.020100  C-freq = 0.000000     beta(X;X,Z) = beta(X,Z,X)
@ B-freq = 0.020100  C-freq = 0.000000     beta(Y;X,Z) = beta(Y,Z,X)
@ B-freq = 0.020100  C-freq = 0.000000     beta(Z;X,Z) = beta(Z,Z,X)
@ B-freq = 0.000000  C-freq = 0.000000     beta(X;Y,Z) = beta(Z,Y,X)
@ B-freq = 0.000000  C-freq = 0.000000     beta(Y;Y,Z) = beta(Z,Y,Y)
@ B-freq = 0.000000  C-freq = 0.000000     beta(Z;Y,Z) = beta(Z,Z,Y)
@ B-freq = 0.020100  C-freq = 0.000000     beta(X;Y,Z) = beta(X,Z,Y)
@ B-freq = 0.020100  C-freq = 0.000000     beta(Y;Y,Z) = beta(Y,Z,Y)
@ B-freq = 0.020100  C-freq = 0.000000     beta(Z;Y,Z) = beta(Z,Z,Y)
@ B-freq = 0.000000  C-freq = 0.000000     beta(X;Z,Z) = beta(Z,Z,X)
@ B-freq = 0.000000  C-freq = 0.000000     beta(Y;Z,Z) = beta(Z,Z,Y)
@ B-freq = 0.000000  C-freq = 0.000000     beta(X;Z,Z) =     14.52579674
@ B-freq = 0.000000  C-freq = 0.000000     beta(Y;Z,Z) =    -40.38943006
@ B-freq = 0.000000  C-freq = 0.000000     beta(Z;Z,Z) =      0.00000000
@ B-freq = 0.020100  C-freq = 0.000000     beta(X;Z,Z) =     14.70859625
@ B-freq = 0.020100  C-freq = 0.000000     beta(Y;Z,Z) =    -41.27527557
@ B-freq = 0.020100  C-freq = 0.000000     beta(Z;Z,Z) =      0.00000000
@ B-freq = 0.000000  C-freq = 0.020100     beta(X;X,Z) = beta(X,Z,X)
@ B-freq = 0.000000  C-freq = 0.020100     beta(Y;X,Z) = beta(Y,Z,X)
@ B-freq = 0.000000  C-freq = 0.020100     beta(Z;X,Z) = beta(Z,Z,X)
@ B-freq = 0.020100  C-freq = 0.020100     beta(X;X,Z) = beta(X,Z,X)
@ B-freq = 0.020100  C-freq = 0.020100     beta(Y;X,Z) = beta(Y,Z,X)
@ B-freq = 0.020100  C-freq = 0.020100     beta(Z;X,Z) = beta(Z,Z,X)
@ B-freq = 0.000000  C-freq = 0.020100     beta(X;Y,Z) = beta(X,Z,Y)
@ B-freq = 0.000000  C-freq = 0.020100     beta(Y;Y,Z) = beta(Y,Z,Y)
@ B-freq = 0.000000  C-freq = 0.020100     beta(Z;Y,Z) = beta(Z,Z,Y)
@ B-freq = 0.020100  C-freq = 0.020100     beta(X;Y,Z) = beta(X,Z,Y)
@ B-freq = 0.020100  C-freq = 0.020100     beta(Y;Y,Z) = beta(Y,Z,Y)
@ B-freq = 0.020100  C-freq = 0.020100     beta(Z;Y,Z) = beta(Z,Z,Y)
@ B-freq = 0.000000  C-freq = 0.020100     beta(X;Z,Z) = beta(X,Z,Z)
@ B-freq = 0.000000  C-freq = 0.020100     beta(Y;Z,Z) = beta(Y,Z,Z)
@ B-freq = 0.000000  C-freq = 0.020100     beta(Z;Z,Z) = beta(Z,Z,Z)
@ B-freq = 0.020100  C-freq = 0.020100     beta(X;Z,Z) =     15.13693498
@ B-freq = 0.020100  C-freq = 0.020100     beta(Y;Z,Z) =    -43.43739231
@ B-freq = 0.020100  C-freq = 0.020100     beta(Z;Z,Z) =      0.00000000

  Total CPU  time used in RESPONSE: 59 minutes 41 seconds
  Total wall time used in RESPONSE:   1 hour   0 minutes 22 seconds


                   .-------------------------------------------.
                   | End of Dynamic Property Section (RESPONS) |
                   `-------------------------------------------'

  Total CPU  time used in DALTON:   1 hour  15 minutes 17 seconds
  Total wall time used in DALTON:   1 hour  16 minutes 10 seconds

 
     Date and time (Linux)  : Tue May 20 15:47:35 2025
     Host name              : xm045                                   
