

     ************************************************************************
     *************** Dalton - An Electronic Structure Program ***************
     ************************************************************************

    This is output from DALTON release Dalton2020.0 (2020)
         ( Web site: http://daltonprogram.org )

   ----------------------------------------------------------------------------

    NOTE:
     
    Dalton is an experimental code for the evaluation of molecular
    properties using (MC)SCF, DFT, CI, and CC wave functions.
    The authors accept no responsibility for the performance of
    the code or for the correctness of the results.
     
    The code (in whole or part) is provided under a licence and
    is not to be reproduced for further distribution without
    the written permission of the authors or their representatives.
     
    See the home page "http://daltonprogram.org" for further information.
     
    If results obtained with this code are published,
    the appropriate citations would be both of:
     
       K. Aidas, C. Angeli, K. L. Bak, V. Bakken, R. Bast,
       L. Boman, O. Christiansen, R. Cimiraglia, S. Coriani,
       P. Dahle, E. K. Dalskov, U. Ekstroem,
       T. Enevoldsen, J. J. Eriksen, P. Ettenhuber, B. Fernandez,
       L. Ferrighi, H. Fliegl, L. Frediani, K. Hald, A. Halkier,
       C. Haettig, H. Heiberg, T. Helgaker, A. C. Hennum,
       H. Hettema, E. Hjertenaes, S. Hoest, I.-M. Hoeyvik,
       M. F. Iozzi, B. Jansik, H. J. Aa. Jensen, D. Jonsson,
       P. Joergensen, J. Kauczor, S. Kirpekar,
       T. Kjaergaard, W. Klopper, S. Knecht, R. Kobayashi, H. Koch,
       J. Kongsted, A. Krapp, K. Kristensen, A. Ligabue,
       O. B. Lutnaes, J. I. Melo, K. V. Mikkelsen, R. H. Myhre,
       C. Neiss, C. B. Nielsen, P. Norman, J. Olsen,
       J. M. H. Olsen, A. Osted, M. J. Packer, F. Pawlowski,
       T. B. Pedersen, P. F. Provasi, S. Reine, Z. Rinkevicius,
       T. A. Ruden, K. Ruud, V. Rybkin, P. Salek, C. C. M. Samson,
       A. Sanchez de Meras, T. Saue, S. P. A. Sauer,
       B. Schimmelpfennig, K. Sneskov, A. H. Steindal,
       K. O. Sylvester-Hvid, P. R. Taylor, A. M. Teale,
       E. I. Tellgren, D. P. Tew, A. J. Thorvaldsen, L. Thoegersen,
       O. Vahtras, M. A. Watson, D. J. D. Wilson, M. Ziolkowski
       and H. Agren,
       "The Dalton quantum chemistry program system",
       WIREs Comput. Mol. Sci. 2014, 4:269–284 (doi: 10.1002/wcms.1172)
     
    and
     
       Dalton, a molecular electronic structure program,
       Release Dalton2020.0 (2020), see http://daltonprogram.org
   ----------------------------------------------------------------------------

    Authors in alphabetical order (Major contribution(s) in parenthesis):

  Kestutis Aidas,           Vilnius University,           Lithuania   (QM/MM)
  Celestino Angeli,         University of Ferrara,        Italy       (NEVPT2)
  Keld L. Bak,              UNI-C,                        Denmark     (AOSOPPA, non-adiabatic coupling, magnetic properties)
  Vebjoern Bakken,          University of Oslo,           Norway      (DALTON; geometry optimizer, symmetry detection)
  Radovan Bast,             UiT The Arctic U. of Norway,  Norway      (DALTON installation and execution frameworks)
  Pablo Baudin,             University of Valencia,       Spain       (Cholesky excitation energies)
  Linus Boman,              NTNU,                         Norway      (Cholesky decomposition and subsystems)
  Bruno N. Cabral Tenorio,  Technical Univ. of Denmark,   Denmark     (Lanczos-based CC methods)
  Ove Christiansen,         Aarhus University,            Denmark     (CC module)
  Renzo Cimiraglia,         University of Ferrara,        Italy       (NEVPT2)
  Sonia Coriani,            Technical Univ. of Denmark,   Denmark     (CC and RESPONS modules)
  Janusz Cukras,            University of Warsaw,         Poland      (MChD in RESPONS)
  Paal Dahle,               University of Oslo,           Norway      (Parallelization)
  Erik K. Dalskov,          UNI-C,                        Denmark     (SOPPA)
  Thomas Enevoldsen,        Univ. of Southern Denmark,    Denmark     (SOPPA)
  Janus J. Eriksen,         Aarhus University,            Denmark     (Polarizable embedding, TDA)
  Rasmus Faber,             Technical Univ. of Denmark,   Denmark     (Vib.avg. NMR w. SOPPA, parallel AO-SOPPA, CVS-CC and EOMCC)
  Tobias Fahleson,          KTH Stockholm,                Sweden      (Damped cubic response)
  Berta Fernandez,          U. of Santiago de Compostela, Spain       (Doublet spin, ESR in RESPONS)
  Lara Ferrighi,            Aarhus University,            Denmark     (PCM Cubic response)
  Heike Fliegl,             University of Oslo,           Norway      (CCSD(R12))
  Luca Frediani,            UiT The Arctic U. of Norway,  Norway      (PCM)
  Emmanuel Fromager,        Univ. Strasbourg,             France      (MC-srDFT)
  Bin Gao,                  UiT The Arctic U. of Norway,  Norway      (Gen1Int library)
  Andre S. P. Gomes,        CNRS/Universite de Lille,     France      (Frozen density embedding)
  Christof Haettig,         Ruhr-University Bochum,       Germany     (CC module)
  Kasper Hald,              Aarhus University,            Denmark     (CC module)
  Asger Halkier,            Aarhus University,            Denmark     (CC module)
  Frederik Beyer Hansen,    University of Copenhagen,     Denmark     (Parallel AO-SOPPA)
  Erik D. Hedegaard,        Univ. of Southern Denmark,    Denmark     (Polarizable embedding, QM/MM, and MC-srDFT)
  Hanne Heiberg,            University of Oslo,           Norway      (Geometry analysis, selected one-electron integrals)
  Trygve Helgaker,          University of Oslo,           Norway      (DALTON; ABACUS, ERI, DFT modules, London, and much more)
  Alf Christian Hennum,     University of Oslo,           Norway      (Parity violation)
  Hinne Hettema,            University of Auckland,       New Zealand (Quadratic response in RESPONS; SIRIUS supersymmetry)
  Eirik Hjertenaes,         NTNU,                         Norway      (Cholesky decomposition)
  Pi A. B. Haase,           University of Copenhagen,     Denmark     (Triplet AO-SOPPA)
  Maria Francesca Iozzi,    University of Oslo,           Norway      (RPA)
  Christoph Jacob           TU Braunschweig               Germany     (Frozen density embedding)
  Brano Jansik              Technical Univ. of Ostrava    Czech Rep.  (DFT cubic response)
  Hans Joergen Aa. Jensen,  Univ. of Southern Denmark,    Denmark     (DALTON; SIRIUS, RESPONS, ABACUS, MC-srDFT, and much more)
  Dan Jonsson,              UiT The Arctic U. of Norway,  Norway      (Cubic response in RESPONS module)
  Poul Joergensen,          Aarhus University,            Denmark     (RESPONS, ABACUS, and CC modules)
  Maciej Kaminski,          University of Warsaw,         Poland      (CPPh in RESPONS)
  Joanna Kauczor,           Linkoeping University,        Sweden      (Complex polarization propagator (CPP) module)
  Sheela Kirpekar,          Univ. of Southern Denmark,    Denmark     (Mass-velocity & Darwin integrals)
  Erik Kjellgren,           Univ. of Southern Denmark,    Denmark     (MC-srDFT)
  Wim Klopper,              KIT Karlsruhe,                Germany     (R12 code in CC, SIRIUS, and ABACUS modules)
  Stefan Knecht,            ETH Zurich,                   Switzerland (Parallel CI and MCSCF, MC-srDFT)
  Rika Kobayashi,           Australian National Univ.,    Australia   (DIIS in CC, London in MCSCF)
  Henrik Koch,              NTNU,                         Norway      (CC module, Cholesky decomposition)
  Jacob Kongsted,           Univ. of Southern Denmark,    Denmark     (Polarizable embedding, polarizable density embedding, QM/MM)
  Andrea Ligabue,           University of Modena,         Italy       (CTOCD, AOSOPPA)
  Nanna H. List             Univ. of Southern Denmark,    Denmark     (Polarizable embedding)
  Ola B. Lutnaes,           University of Oslo,           Norway      (DFT Hessian)
  Juan I. Melo,             University of Buenos Aires,   Argentina   (LRESC, Relativistic Effects on NMR Shieldings)
  Kurt V. Mikkelsen,        University of Copenhagen,     Denmark     (MC-SCRF and QM/MM)
  Rolf H. Myhre,            NTNU,                         Norway      (Subsystems and CC3)
  Christian Neiss,          Univ. Erlangen-Nuernberg,     Germany     (CCSD(R12))
  Christian B. Nielsen,     University of Copenhagen,     Denmark     (QM/MM)
  Patrick Norman,           KTH Stockholm,                Sweden      (Cubic response and complex frequency response in RESPONS)
  Jeppe Olsen,              Aarhus University,            Denmark     (SIRIUS CI/density modules)
  Jogvan Magnus H. Olsen,   Aarhus University,            Denmark     (Polarizable embedding and polarizable density embedding)
  Anders Osted,             Copenhagen University,        Denmark     (QM/MM)
  Martin J. Packer,         University of Sheffield,      UK          (SOPPA)
  Filip Pawlowski,          Kazimierz Wielki University,  Poland      (CC3)
  Morten N. Pedersen,       Univ. of Southern Denmark,    Denmark     (Polarizable embedding)
  Thomas B. Pedersen,       University of Oslo,           Norway      (Cholesky decomposition)
  Patricio F. Provasi,      University of Northeastern,   Argentina   (Analysis of coupling constants in localized orbitals)
  Peter Reinholdt,          Univ. of Southern Denmark,    Denmark     (Polarizable embedding and polarizable density embedding)
  Zilvinas Rinkevicius,     KTH Stockholm,                Sweden      (open-shell DFT, ESR)
  Elias Rudberg,            KTH Stockholm,                Sweden      (DFT grid and basis info)
  Torgeir A. Ruden,         University of Oslo,           Norway      (Numerical derivatives in ABACUS)
  Kenneth Ruud,             UiT The Arctic U. of Norway,  Norway      (DALTON; ABACUS magnetic properties and much more)
  Pawel Salek,              KTH Stockholm,                Sweden      (DALTON; DFT code)
  Claire C. M. Samson       University of Karlsruhe       Germany     (Boys localization, r12 integrals in ERI)
  Alfredo Sanchez de Meras, University of Valencia,       Spain       (CC module, Cholesky decomposition)
  Trond Saue,               Paul Sabatier University,     France      (direct Fock matrix construction)
  Stephan P. A. Sauer,      University of Copenhagen,     Denmark     (SOPPA(CCSD), SOPPA prop., AOSOPPA, vibrational g-factors)
  Bernd Schimmelpfennig,    Forschungszentrum Karlsruhe,  Germany     (AMFI module)
  Anna K. Schnack-Petersen, University of Copenhagen,     Denmark     (RPA(D) and HRPA(D) properties in AOSOPPA)
  Kristian Sneskov,         Aarhus University,            Denmark     (Polarizable embedding, QM/MM)
  Arnfinn H. Steindal,      UiT The Arctic U. of Norway,  Norway      (parallel QM/MM, polarizable embedding)
  Casper Steinmann,         Aalborg University,           Denmark     (QFIT, polarizable embedding)
  K. O. Sylvester-Hvid,     University of Copenhagen,     Denmark     (MC-SCRF)
  Peter R. Taylor,          VLSCI/Univ. of Melbourne,     Australia   (Symmetry handling ABACUS, integral transformation)
  Andrew M. Teale,          University of Nottingham,     England     (DFT-AC, DFT-D)
  David P. Tew,             University of Bristol,        England     (CCSD(R12))
  Julien Toulouse,          Sorbonne Univ.,               France      (MC-srDFT)
  Olav Vahtras,             KTH Stockholm,                Sweden      (Triplet response, spin-orbit, ESR, TDDFT, open-shell DFT)
  Lucas Visscher,           Vrije Universiteit Amsterdam, Netherlands (Frozen density embedding)
  David J. Wilson,          La Trobe University,          Australia   (DFT Hessian and DFT magnetizabilities)
  Hans Agren,               KTH Stockholm,                Sweden      (SIRIUS module, RESPONS, MC-SCRF solvation)
 --------------------------------------------------------------------------------

     Date and time (Linux)  : Wed May 14 13:44:25 2025
     Host name              : xm045                                   

 * Work memory size             :  1310720000 =  9.766 gigabytes.

 * Directories for basis set searches:
   1) /gpfs/projects/rjh/adrian/summer2025/beta_projects/raw_data/NLO/dalton/hf/n9/excited-state
   2) /gpfs/projects/rjh/adrian/dalton/build/basis


Compilation information
-----------------------

 Who compiled             | ahurtado
 Host                     | milan2
 System                   | Linux-5.14.0-427.42.1.el9_4.x86_64
 CMake generator          | Unix Makefiles
 Processor                | x86_64
 64-bit integers          | OFF
 MPI                      | ON
 Fortran compiler         | /gpfs/software/openmpi/milan/gcc13.2/4.1.6/bin/mpi
                          | f90
 Fortran compiler version | GNU Fortran (GCC) 13.2.0
 C compiler               | /gpfs/software/openmpi/milan/gcc13.2/4.1.6/bin/mpi
                          | cc
 C compiler version       | gcc (GCC) 13.2.0
 C++ compiler             | /gpfs/software/openmpi/milan/gcc13.2/4.1.6/bin/mpi
                          | cxx
 C++ compiler version     | unknown
 BLAS                     | /gpfs/software/intel/oneAPI/2024_2/mkl/2024.2/lib/
                          | intel64/libmkl_gf_lp64.so;/gpfs/software/intel/one
                          | API/2024_2/mkl/2024.2/lib/intel64/libmkl_sequentia
                          | l.so;/gpfs/software/intel/oneAPI/2024_2/mkl/2024.2
                          | /lib/intel64/libmkl_core.so;/usr/lib64/libpthread.
                          | a;/usr/lib64/libm.so
 LAPACK                   | /gpfs/software/intel/oneAPI/2024_2/mkl/2024.2/lib/
                          | intel64/libmkl_lapack95_lp64.a;/gpfs/software/inte
                          | l/oneAPI/2024_2/mkl/2024.2/lib/intel64/libmkl_gf_l
                          | p64.so
 Static linking           | OFF
 Last Git revision        | 66052b3af5ea7225e31178bf9a8b031913c72190
 Git branch               | (HEAD detached at Dalton2020.0)
 Configuration time       | 2025-04-10 16:02:31.569498

 * MPI parallel run using 96 processes.


   Content of the .dal input file
 ----------------------------------

**DALTON INPUT
.RUN PROPERTIES
.DIRECT
**WAVE FUNCTIONS
.HF
**PROPERTIES
.EXCITA
*EXCITA
.NEXCIT
   4  4  4  4  4  4  4  4  4  4
**END OF DALTON INPUT


   Content of the .mol file
 ----------------------------

BASIS
aug-cc-pVTZ
blah
blah
Atomtype=4 Angstrom Charge=0 Nosymmetry
Charge=6 Atoms=18
C_a -3.7189519980295342 -2.5702229992842374 0.0
C_b -2.381346000024079 -2.2565080000504874 0.0
C_c -1.8676679982634674 -0.9122140011597515 0.0
C_d -0.5256979975123753 -0.6100489983545645 0.0
C_e 0.0 0.7283899986652947 0.0
C_f 1.3449300011049237 1.020297001785314 0.0
C_g 1.8825679986501258 2.3537180018201855 0.0
C_h 3.229956001439751 2.633974999310597 0.0
C_i 3.7826009990036087 3.9618029984033667 0.0
C_j 5.132482998111806 4.225858002606215 0.0
C_k 5.7079590024648335 5.5454779974855475 0.0
C_l 7.06114499886443 5.781222999895392 0.0
C_m 7.677692002318556 7.083692001536406 0.0
C_n 9.037733002639348 7.246651001706546 0.0
C_o -7.317712997511608 -5.965770001337471 0.0
C_p -6.008842999537292 -5.622977000133098 0.0
C_q -5.546745001189283 -4.252576001219781 0.0
C_r -4.216541001712377 -3.9231990022913235 0.0
Charge=7 Atoms=2
N_a 9.708646000517724 8.439325998171421 0.0
N_b -7.730457997695713 -7.364606999137653 0.0
Charge=8 Atoms=2
O_a -8.95200099744693 -7.559590999748181 0.0
O_b -6.864031001771462 -8.241879000443323 0.0
Charge=1 Atoms=20
H_a -4.45529400084906 -1.7538090019245816 0.0
H_b -1.6500589995518828 -3.0784980011802383 0.0
H_c -2.594704001783365 -0.08716900178330951 0.0
H_d 0.1976739988761595 -1.4391239996965848 0.0
H_e -0.7198129991828575 1.5599079995180942 0.0
H_f 2.0612070011236794 0.18495300207342125 0.0
H_g 1.1700559992333892 3.1915629988651464 0.0
H_h 3.9379909976092837 1.791418002002718 0.0
H_i 3.079385997582147 4.807433001858416 0.0
H_j 5.828439000562358 3.3728960001840442 0.0
H_k 5.0196949982378225 6.403021002352135 0.0
H_l 7.73417200148994 4.909603997643968 0.0
H_m 7.028377001869629 7.969815999845583 0.0
H_n 9.6862149987821 6.361517998851562 0.0
H_o 9.206316997805747 9.316495000424808 0.0
H_p 10.716328999840528 8.469234998866593 0.0
H_q -8.164134999330777 -5.276389999415561 0.0
H_r -5.270032998875554 -6.433534000623792 0.0
H_s -3.47523499915044 -4.735861000933026 0.0
H_t -6.297004999662082 -3.450169001828461 0.0


       *******************************************************************
       *********** Output from DALTON general input processing ***********
       *******************************************************************

 --------------------------------------------------------------------------------
   Overall default print level:    0
   Print level for DALTON.STAT:    1

    Parallel calculation using MPI
    AO-direct calculation (in sections where implemented)
    HERMIT 1- and 2-electron integral sections will be executed
    "Old" integral transformation used (limited to max 255 basis functions)
    Wave function sections will be executed (SIRIUS module)
    Static molecular property section will be executed (ABACUS module)
 --------------------------------------------------------------------------------


   ****************************************************************************
   *************** Output of molecule and basis set information ***************
   ****************************************************************************


    The two title cards from your ".mol" input:
    ------------------------------------------------------------------------
 1: blah                                                                    
 2: blah                                                                    
    ------------------------------------------------------------------------

  Coordinates are entered in Angstrom and converted to atomic units.
          - Conversion factor : 1 bohr = 0.52917721 A

  Atomic type no.    1
  --------------------
  Nuclear charge:   6.00000
  Number of symmetry independent centers:   18
  Number of basis sets to read;    2
  Basis set file used for this atomic type with Z =   6 :
     "/gpfs/projects/rjh/adrian/dalton/build/basis/aug-cc-pVTZ"

  Atomic type no.    2
  --------------------
  Nuclear charge:   7.00000
  Number of symmetry independent centers:    2
  Number of basis sets to read;    2
  Basis set file used for this atomic type with Z =   7 :
     "/gpfs/projects/rjh/adrian/dalton/build/basis/aug-cc-pVTZ"

  Atomic type no.    3
  --------------------
  Nuclear charge:   8.00000
  Number of symmetry independent centers:    2
  Number of basis sets to read;    2
  Basis set file used for this atomic type with Z =   8 :
     "/gpfs/projects/rjh/adrian/dalton/build/basis/aug-cc-pVTZ"

  Atomic type no.    4
  --------------------
  Nuclear charge:   1.00000
  Number of symmetry independent centers:   20
  Number of basis sets to read;    2
  Basis set file used for this atomic type with Z =   1 :
     "/gpfs/projects/rjh/adrian/dalton/build/basis/aug-cc-pVTZ"


                         SYMGRP: Point group information
                         -------------------------------

@    Point group: C1 


                                 Isotopic Masses
                                 ---------------

                           C_a        12.000000
                           C_b        12.000000
                           C_c        12.000000
                           C_d        12.000000
                           C_e        12.000000
                           C_f        12.000000
                           C_g        12.000000
                           C_h        12.000000
                           C_i        12.000000
                           C_j        12.000000
                           C_k        12.000000
                           C_l        12.000000
                           C_m        12.000000
                           C_n        12.000000
                           C_o        12.000000
                           C_p        12.000000
                           C_q        12.000000
                           C_r        12.000000
                           N_a        14.003074
                           N_b        14.003074
                           O_a        15.994915
                           O_b        15.994915
                           H_a         1.007825
                           H_b         1.007825
                           H_c         1.007825
                           H_d         1.007825
                           H_e         1.007825
                           H_f         1.007825
                           H_g         1.007825
                           H_h         1.007825
                           H_i         1.007825
                           H_j         1.007825
                           H_k         1.007825
                           H_l         1.007825
                           H_m         1.007825
                           H_n         1.007825
                           H_o         1.007825
                           H_p         1.007825
                           H_q         1.007825
                           H_r         1.007825
                           H_s         1.007825
                           H_t         1.007825

                       Total mass:   296.152478 amu
                       Natural abundance:  80.709 %

 Center-of-mass coordinates (a.u.):   -0.208621   -0.202585    0.000000
 Center-of-mass coordinates (Angs):   -0.110398   -0.107204    0.000000


  Atoms and basis sets
  --------------------

  Number of atom types :    4
  Total number of atoms:   42

  Basis set used is "aug-cc-pVTZ" from the basis set library.

  label    atoms   charge   prim   cont     basis
  ----------------------------------------------------------------------
  C_         18    6.0000    58    46      [11s6p3d2f|5s4p3d2f]                               
  N_          2    7.0000    58    46      [11s6p3d2f|5s4p3d2f]                               
  O_          2    8.0000    58    46      [11s6p3d2f|5s4p3d2f]                               
  H_         20    1.0000    25    23      [6s3p2d|4s3p2d]                                    
  ----------------------------------------------------------------------
  total:     42  158.0000  1776  1472
  ----------------------------------------------------------------------
  Spherical harmonic basis used.

  Threshold for neglecting AO integrals:  1.00D-12

  Max    interatomic separation is   25.3726 Angstrom (   47.9472 Bohr)
  between atoms   38 and   21, "H_p   " and "O_a   ".

  Min HX interatomic separation is    1.0081 Angstrom (    1.9051 Bohr)

  Min YX interatomic separation is    1.2330 Angstrom (    2.3300 Bohr)


  Bond distances (Angstrom):
  --------------------------

                  atom 1     atom 2       distance
                  ------     ------       --------
  bond distance:  C_b        C_a          1.373902
  bond distance:  C_c        C_b          1.439094
  bond distance:  C_d        C_c          1.375568
  bond distance:  C_e        C_d          1.437977
  bond distance:  C_f        C_e          1.376244
  bond distance:  C_g        C_f          1.437730
  bond distance:  C_h        C_g          1.376226
  bond distance:  C_i        C_h          1.438243
  bond distance:  C_j        C_i          1.375466
  bond distance:  C_k        C_j          1.439642
  bond distance:  C_l        C_k          1.373568
  bond distance:  C_m        C_l          1.441026
  bond distance:  C_n        C_m          1.369769
  bond distance:  C_p        C_o          1.353014
  bond distance:  C_q        C_p          1.446213
  bond distance:  C_r        C_a          1.441575
  bond distance:  C_r        C_q          1.370377
  bond distance:  N_a        C_n          1.368429
  bond distance:  N_b        C_o          1.458459
  bond distance:  O_a        N_b          1.237007
  bond distance:  O_b        N_b          1.233005
  bond distance:  H_a        C_a          1.099423
  bond distance:  H_b        C_b          1.100204
  bond distance:  H_c        C_c          1.099673
  bond distance:  H_d        C_d          1.100287
  bond distance:  H_e        C_e          1.099797
  bond distance:  H_f        C_f          1.100387
  bond distance:  H_g        C_g          1.099844
  bond distance:  H_h        C_h          1.100553
  bond distance:  H_i        C_i          1.099819
  bond distance:  H_j        C_j          1.100863
  bond distance:  H_k        C_k          1.099585
  bond distance:  H_l        C_l          1.101220
  bond distance:  H_m        C_m          1.098556
  bond distance:  H_n        C_n          1.097264
  bond distance:  H_o        N_a          1.010821
  bond distance:  H_p        N_a          1.008127
  bond distance:  H_q        C_o          1.091639
  bond distance:  H_r        C_p          1.096742
  bond distance:  H_s        C_r          1.099979
  bond distance:  H_t        C_q          1.098520


  Bond angles (degrees):
  ----------------------

                  atom 1     atom 2     atom 3         angle
                  ------     ------     ------         -----
  bond angle:     C_b        C_a        C_r          123.391
  bond angle:     C_b        C_a        H_a          118.849
  bond angle:     C_r        C_a        H_a          117.760
  bond angle:     C_a        C_b        C_c          124.112
  bond angle:     C_a        C_b        H_b          118.459
  bond angle:     C_c        C_b        H_b          117.429
  bond angle:     C_b        C_c        C_d          123.602
  bond angle:     C_b        C_c        H_c          117.701
  bond angle:     C_d        C_c        H_c          118.697
  bond angle:     C_c        C_d        C_e          124.133
  bond angle:     C_c        C_d        H_d          118.415
  bond angle:     C_e        C_d        H_d          117.452
  bond angle:     C_d        C_e        C_f          123.689
  bond angle:     C_d        C_e        H_e          117.675
  bond angle:     C_f        C_e        H_e          118.636
  bond angle:     C_e        C_f        C_g          124.205
  bond angle:     C_e        C_f        H_f          118.366
  bond angle:     C_g        C_f        H_f          117.429
  bond angle:     C_f        C_g        C_h          123.709
  bond angle:     C_f        C_g        H_g          117.662
  bond angle:     C_h        C_g        H_g          118.628
  bond angle:     C_g        C_h        C_i          124.347
  bond angle:     C_g        C_h        H_h          118.292
  bond angle:     C_i        C_h        H_h          117.361
  bond angle:     C_h        C_i        C_j          123.665
  bond angle:     C_h        C_i        H_i          117.656
  bond angle:     C_j        C_i        H_i          118.678
  bond angle:     C_i        C_j        C_k          124.630
  bond angle:     C_i        C_j        H_j          118.144
  bond angle:     C_k        C_j        H_j          117.226
  bond angle:     C_j        C_k        C_l          123.444
  bond angle:     C_j        C_k        H_k          117.688
  bond angle:     C_l        C_k        H_k          118.868
  bond angle:     C_k        C_l        C_m          125.214
  bond angle:     C_k        C_l        H_l          117.791
  bond angle:     C_m        C_l        H_l          116.995
  bond angle:     C_l        C_m        C_n          122.164
  bond angle:     C_l        C_m        H_m          118.436
  bond angle:     C_n        C_m        H_m          119.400
  bond angle:     C_m        C_n        N_a          126.192
  bond angle:     C_m        C_n        H_n          119.395
  bond angle:     N_a        C_n        H_n          114.413
  bond angle:     C_p        C_o        N_b          121.116
  bond angle:     C_p        C_o        H_q          126.162
  bond angle:     N_b        C_o        H_q          112.722
  bond angle:     C_o        C_p        C_q          123.310
  bond angle:     C_o        C_p        H_r          117.673
  bond angle:     C_q        C_p        H_r          119.017
  bond angle:     C_p        C_q        C_r          122.542
  bond angle:     C_p        C_q        H_t          118.290
  bond angle:     C_r        C_q        H_t          119.169
  bond angle:     C_a        C_r        C_q          124.100
  bond angle:     C_a        C_r        H_s          117.437
  bond angle:     C_q        C_r        H_s          118.463
  bond angle:     C_n        N_a        H_o          120.843
  bond angle:     C_n        N_a        H_p          121.059
  bond angle:     H_o        N_a        H_p          118.098
  bond angle:     C_o        N_b        O_a          115.508
  bond angle:     C_o        N_b        O_b          118.917
  bond angle:     O_a        N_b        O_b          125.575




 Principal moments of inertia (u*A**2) and principal axes
 --------------------------------------------------------

   IA     115.135127          0.744437    0.667693    0.000000
   IB   18229.413798         -0.667693    0.744437    0.000000
   IC   18344.548925          0.000000    0.000000    1.000000


 Rotational constants
 --------------------

@    The molecule is planar.

               A                   B                   C

           4389.4424             27.7233             27.5493 MHz
            0.146416            0.000925            0.000919 cm-1


@  Nuclear repulsion energy : 1273.523417940457 Hartree


                     .---------------------------------------.
                     | Starting in Integral Section (HERMIT) |
                     `---------------------------------------'



 ***************************************************************************************
 ****************** Output from **INTEGRALS input processing (HERMIT) ******************
 ***************************************************************************************


 - Using defaults, no **INTEGRALS input found

 Default print level:        1

 Calculation of one-electron Hamiltonian integrals.

 Center of mass  (bohr):     -0.208621259691     -0.202585457701      0.000000000000
 Operator center (bohr):      0.000000000000      0.000000000000      0.000000000000
 Gauge origin    (bohr):      0.000000000000      0.000000000000      0.000000000000
 Dipole origin   (bohr):      0.000000000000      0.000000000000      0.000000000000


     ************************************************************************
     ************************** Output from HERINT **************************
     ************************************************************************



                      Nuclear contribution to dipole moments
                      --------------------------------------

                 au               Debye          C m (/(10**-30)

      x      0.00001150         0.00002923         0.00009750
      y     -0.00001326        -0.00003370        -0.00011242
      z      0.00000000         0.00000000         0.00000000


  Time used in ONEDRV     is       3.56 seconds
  Time used in HUCKEL     is       0.84 seconds
  Time used in OVERLAP    is       0.45 seconds
  Time used in POPOVLP    is       0.87 seconds
  Time used in R2         is       0.55 seconds
  Time used in R4         is       0.65 seconds
  Time used in DIPLEN     is       0.75 seconds
  Time used in QUADRUP    is       1.49 seconds
  Time used in KINENE     is       0.75 seconds
  Time used in GABGEN     is       4.37 seconds
  Total CPU  time used in HERMIT:  14.27 seconds
  Total wall time used in HERMIT:  14.52 seconds


                        .----------------------------------.
                        | End of Integral Section (HERMIT) |
                        `----------------------------------'



                   .--------------------------------------------.
                   | Starting in Wave Function Section (SIRIUS) |
                   `--------------------------------------------'



@ Primary orbitals are deleted during canonical orthonormalization
@   because of detected numerical linear dependence or too large coefficients.
@ Eigenvalue threshold for num. lin. dep. =  1.00D-06

@   6 MO components are deleted in symmetry    1
 Overlap eigenvalues of the deleted orbitals:
  8.91D-07  6.81D-07  5.60D-07  5.25D-07  2.75D-07
  7.60D-08

 Max MO coeff. of last deleted MO & limit:  2.51D+02  1.00D+03

WARNING: Orbitals have been deleted because of numerical
   linear dependence although not requested in input.

 *** Output from Huckel module :

     Using EWMO model:          T
     Using EHT  model:          F
     Number of Huckel orbitals each symmetry:  130

 EWMO - Energy Weighted Maximum Overlap - is a Huckel type method,
        which normally is better than Extended Huckel Theory.
 Reference: Linderberg and Ohrn, Propagators in Quantum Chemistry (Wiley, 1973)

 Huckel EWMO eigenvalues for symmetry :  1
          -20.684753     -20.683495     -15.677079     -15.674965     -11.359354
          -11.359272     -11.358943     -11.358882     -11.358096     -11.356712
          -11.354957     -11.353063     -11.351302     -11.348457     -11.347413
          -11.346482     -11.345827     -11.345501     -11.345410     -11.345373
          -11.345224     -11.345217      -1.964072      -1.792194      -1.785367
           -1.765634      -1.725783      -1.661669      -1.574564      -1.472986
           -1.440769      -1.351694      -1.234945      -1.204160      -1.166823
           -1.118636      -1.108065      -1.037175      -1.005731      -0.958667
           -0.912453      -0.878719      -0.852022      -0.837477      -0.821286
           -0.778732      -0.754224      -0.749534      -0.735332      -0.707055
           -0.690851      -0.667261      -0.656208      -0.638381      -0.616758
           -0.601411      -0.596061      -0.585299      -0.560757      -0.551168
           -0.544827      -0.530738      -0.521367      -0.502243      -0.498281
           -0.493019      -0.491048      -0.490798      -0.483637      -0.482259
           -0.476053      -0.475653      -0.461261      -0.440981      -0.422254
           -0.397332      -0.388766      -0.366507      -0.360902      -0.335433
           -0.298075      -0.271791      -0.249897      -0.232385      -0.229149
           -0.218884      -0.208881      -0.201819      -0.200955      -0.197179
           -0.194556      -0.190563      -0.166649      -0.142735      -0.138924
           -0.134118      -0.131732      -0.131287      -0.130378      -0.129743
           -0.129570      -0.129270      -0.128166      -0.127489      -0.127339
           -0.127042      -0.126319      -0.125455      -0.125144      -0.124241
           -0.123831      -0.123192      -0.111647      -0.110652      -0.106262
           -0.103975      -0.100657      -0.097477      -0.095075      -0.092644
           -0.090662      -0.089300      -0.087410      -0.086910      -0.085446
           -0.085082      -0.083404      -0.081754      -0.080260      -0.079364

 **********************************************************************
 *SIRIUS* a direct, restricted step, second order MCSCF program       *
 **********************************************************************

 
     Date and time (Linux)  : Wed May 14 13:47:32 2025
     Host name              : xm045                                   

 Title lines from ".mol" input file:
     blah                                                                    
     blah                                                                    

 Print level on unit LUPRI =   2 is   0
 Print level on unit LUW4  =   2 is   5

@    Restricted, closed shell Hartree-Fock calculation.
 Fock matrices are calculated directly and in parallel without use of integrals on disk.

 Initial molecular orbitals are obtained according to
 ".MOSTART EWMO  " input option

     Wave function specification
     ============================
@    Wave function type        --- HF ---
@    Number of closed shell electrons         158
@    Number of electrons in active shells       0
@    Total charge of the molecule               0

@    Spin multiplicity and 2 M_S                1         0
@    Total number of symmetries                 1 (point group: C1 )
@    Reference state symmetry                   1 (irrep name : A  )

     Orbital specifications
     ======================
@    Abelian symmetry species          All |    1
@                                          |  A  
                                       --- |  ---
@    Occupied SCF orbitals              79 |   79
@    Secondary orbitals               1387 | 1387
@    Total number of orbitals         1466 | 1466
@    Number of basis functions        1472 | 1472

     Optimization information
     ========================
@    Number of configurations                 1
@    Number of orbital rotations         109573
     ------------------------------------------
@    Total number of variables           109574

     Maximum number of Fock   iterations      0
     Maximum number of DIIS   iterations     60
     Maximum number of QC-SCF iterations     60
     Threshold for SCF convergence     1.00D-05


 ***********************************************
 ***** DIIS acceleration of SCF iterations *****
 ***********************************************

 C1-DIIS algorithm; max error vectors =    8

 Iter      Total energy        Error norm    Delta(E)  DIIS dim.
 -----------------------------------------------------------------------------
   1  Screening settings (-IFTHRS, JTDIIS, DIFDEN, times)  -10    1    T  1.05D+02  1.07D+02
@  1    -948.304706099        7.54037D+00   -9.48D+02    1
      Virial theorem: -V/T =      2.010632
@    MULPOP   C_a    -0.01; C_b     0.05; C_c     0.00; C_d     0.09; C_e     0.05; C_f     0.10; C_g     0.01; C_h     0.06; C_i    -0.04; C_j     0.03; 
@             C_k    -0.15; C_l    -0.05; C_m    -0.06; C_n     0.34; C_o     0.18; C_p    -0.01; C_q    -0.06; C_r    -0.03; N_a    -0.69; N_b     0.67; 
@             O_a    -0.91; O_b    -0.95; H_a    -0.00; H_b    -0.01; H_c    -0.01; H_d    -0.02; H_e    -0.01; H_f    -0.02; H_g    -0.01; H_h    -0.02; 
@    MULPOP    dipole moment & components:     27.2108;       18.6419     19.8219      0.0000
   1  Level shift: doubly occupied orbital energies shifted by -2.00D-01
 -----------------------------------------------------------------------------
   2  Screening settings (-IFTHRS, JTDIIS, DIFDEN, times)  -10    2    T  1.05D+02  1.06D+02
@  2    -951.448324109        2.99379D+00   -3.14D+00    2
      Virial theorem: -V/T =      2.000887
@    MULPOP   C_a    -0.00; C_b     0.02; C_c    -0.08; C_d    -0.02; C_e    -0.04; C_f     0.01; C_g    -0.05; C_h    -0.03; C_i     0.04; C_j     0.05; 
@             C_k     0.03; C_l     0.02; C_m     0.18; C_n    -0.53; C_o    -0.88; C_p     0.27; C_q    -0.12; C_r     0.15; N_a    -0.54; N_b     0.24; 
@             O_a    -0.21; O_b    -0.33; H_a     0.01; H_b     0.01; H_c    -0.03; H_d    -0.03; H_e    -0.04; H_f    -0.04; H_g    -0.05; H_h    -0.05; 
@    MULPOP    dipole moment & components:      9.7720;        7.3217      6.4718      0.0000
   2  Level shift: doubly occupied orbital energies shifted by -1.00D-01
 -----------------------------------------------------------------------------
   3  Screening settings (-IFTHRS, JTDIIS, DIFDEN, times)  -10    3    T  1.01D+02  1.02D+02
@  3    -951.894202128        9.81087D-01   -4.46D-01    3
      Virial theorem: -V/T =      2.001670
@    MULPOP   C_a    -0.03; C_b    -0.01; C_c    -0.10; C_d    -0.07; C_e    -0.11; C_f    -0.02; C_g    -0.12; C_h    -0.06; C_i    -0.05; C_j     0.02; 
@             C_k    -0.05; C_l     0.05; C_m     0.03; C_n    -0.41; C_o    -0.63; C_p     0.26; C_q    -0.10; C_r     0.12; N_a    -0.54; N_b     0.92; 
@             O_a    -0.75; O_b    -0.72; H_a     0.06; H_b     0.05; H_c     0.01; H_d     0.01; H_e     0.01; H_f     0.02; H_g     0.00; H_h     0.01; 
@    MULPOP    dipole moment & components:      8.8444;        6.5107      5.9862      0.0000
   3  Level shift: doubly occupied orbital energies shifted by -5.00D-02
 -----------------------------------------------------------------------------
   4  Screening settings (-IFTHRS, JTDIIS, DIFDEN, times)  -10    4    T  9.74D+01  9.82D+01
@  4    -951.955008560        2.88615D-01   -6.08D-02    4
      Virial theorem: -V/T =      2.003425
@    MULPOP   C_a    -0.04; C_b    -0.01; C_c    -0.11; C_d    -0.06; C_e    -0.11; C_f    -0.03; C_g    -0.13; C_h    -0.06; C_i    -0.05; C_j     0.04; 
@             C_k    -0.06; C_l     0.06; C_m     0.00; C_n    -0.38; C_o    -0.68; C_p     0.23; C_q    -0.11; C_r     0.13; N_a    -0.55; N_b     0.73; 
@             O_a    -0.63; O_b    -0.67; H_a     0.06; H_b     0.06; H_c     0.02; H_d     0.02; H_e     0.02; H_f     0.02; H_g     0.01; H_h     0.02; 
@    MULPOP    dipole moment & components:      7.9334;        5.9651      5.2304      0.0000
   4  Level shift: doubly occupied orbital energies shifted by -2.50D-02
 -----------------------------------------------------------------------------
   5  Screening settings (-IFTHRS, JTDIIS, DIFDEN, times)  -10    5    T  9.41D+01  9.49D+01
@  5    -951.967181242        1.20251D-01   -1.22D-02    5
      Virial theorem: -V/T =      2.002736
@    MULPOP   C_a    -0.06; C_b    -0.02; C_c    -0.13; C_d    -0.07; C_e    -0.13; C_f    -0.04; C_g    -0.14; C_h    -0.07; C_i    -0.07; C_j     0.03; 
@             C_k    -0.07; C_l     0.05; C_m    -0.01; C_n    -0.40; C_o    -0.66; C_p     0.22; C_q    -0.12; C_r     0.12; N_a    -0.57; N_b     0.78; 
@             O_a    -0.67; O_b    -0.66; H_a     0.08; H_b     0.08; H_c     0.03; H_d     0.04; H_e     0.03; H_f     0.04; H_g     0.02; H_h     0.03; 
@    MULPOP    dipole moment & components:      7.2793;        5.5712      4.6850      0.0000
   5  Level shift: doubly occupied orbital energies shifted by -1.25D-02
 -----------------------------------------------------------------------------
   6  Screening settings (-IFTHRS, JTDIIS, DIFDEN, times)  -14    6    F  1.26D+02  1.27D+02
@  6    -951.970674695        6.21308D-02   -3.49D-03    6
      Virial theorem: -V/T =      2.002602
@    MULPOP   C_a    -0.06; C_b    -0.02; C_c    -0.13; C_d    -0.07; C_e    -0.13; C_f    -0.05; C_g    -0.14; C_h    -0.07; C_i    -0.07; C_j     0.03; 
@             C_k    -0.07; C_l     0.05; C_m    -0.01; C_n    -0.40; C_o    -0.68; C_p     0.22; C_q    -0.12; C_r     0.12; N_a    -0.57; N_b     0.77; 
@             O_a    -0.65; O_b    -0.67; H_a     0.08; H_b     0.08; H_c     0.03; H_d     0.04; H_e     0.03; H_f     0.04; H_g     0.02; H_h     0.03; 
@    MULPOP    dipole moment & components:      6.8835;        5.2796      4.4169      0.0000
   6  Level shift: doubly occupied orbital energies shifted by -1.25D-02
 -----------------------------------------------------------------------------
   7  Screening settings (-IFTHRS, JTDIIS, DIFDEN, times)  -14    7    T  1.17D+02  1.18D+02
@  7    -951.971798840        2.96485D-02   -1.12D-03    7
      Virial theorem: -V/T =      2.002638
@    MULPOP   C_a    -0.06; C_b    -0.02; C_c    -0.13; C_d    -0.07; C_e    -0.13; C_f    -0.05; C_g    -0.14; C_h    -0.07; C_i    -0.07; C_j     0.03; 
@             C_k    -0.07; C_l     0.05; C_m    -0.01; C_n    -0.40; C_o    -0.68; C_p     0.22; C_q    -0.12; C_r     0.12; N_a    -0.58; N_b     0.77; 
@             O_a    -0.65; O_b    -0.66; H_a     0.08; H_b     0.08; H_c     0.03; H_d     0.04; H_e     0.03; H_f     0.04; H_g     0.02; H_h     0.03; 
@    MULPOP    dipole moment & components:      6.6379;        5.1265      4.2166      0.0000
 -----------------------------------------------------------------------------
   8  Screening settings (-IFTHRS, JTDIIS, DIFDEN, times)  -14    8    T  1.15D+02  1.17D+02
@  8    -951.972077618        1.30403D-02   -2.79D-04    8
      Virial theorem: -V/T =      2.002633
@    MULPOP   C_a    -0.06; C_b    -0.02; C_c    -0.13; C_d    -0.07; C_e    -0.13; C_f    -0.05; C_g    -0.14; C_h    -0.07; C_i    -0.07; C_j     0.03; 
@             C_k    -0.07; C_l     0.05; C_m    -0.01; C_n    -0.41; C_o    -0.67; C_p     0.22; C_q    -0.12; C_r     0.12; N_a    -0.58; N_b     0.77; 
@             O_a    -0.65; O_b    -0.66; H_a     0.08; H_b     0.08; H_c     0.03; H_d     0.04; H_e     0.03; H_f     0.04; H_g     0.02; H_h     0.03; 
@    MULPOP    dipole moment & components:      6.4176;        4.9538      4.0798      0.0000
 -----------------------------------------------------------------------------
   9  Screening settings (-IFTHRS, JTDIIS, DIFDEN, times)  -14    9    T  1.13D+02  1.14D+02
@  9    -951.972117794        5.12088D-03   -4.02D-05    8
      Virial theorem: -V/T =      2.002624
@    MULPOP   C_a    -0.06; C_b    -0.02; C_c    -0.13; C_d    -0.07; C_e    -0.13; C_f    -0.05; C_g    -0.14; C_h    -0.08; C_i    -0.06; C_j     0.03; 
@             C_k    -0.07; C_l     0.05; C_m    -0.01; C_n    -0.41; C_o    -0.68; C_p     0.22; C_q    -0.12; C_r     0.12; N_a    -0.58; N_b     0.77; 
@             O_a    -0.65; O_b    -0.66; H_a     0.08; H_b     0.08; H_c     0.03; H_d     0.04; H_e     0.03; H_f     0.04; H_g     0.02; H_h     0.03; 
@    MULPOP    dipole moment & components:      6.3211;        4.8786      4.0194      0.0000
 -----------------------------------------------------------------------------
  10  Screening settings (-IFTHRS, JTDIIS, DIFDEN, times)  -14   10    T  1.12D+02  1.14D+02
@ 10    -951.972128008        2.93643D-03   -1.02D-05    8
      Virial theorem: -V/T =      2.002624
@    MULPOP   C_a    -0.06; C_b    -0.02; C_c    -0.13; C_d    -0.07; C_e    -0.13; C_f    -0.05; C_g    -0.14; C_h    -0.08; C_i    -0.06; C_j     0.03; 
@             C_k    -0.07; C_l     0.05; C_m    -0.01; C_n    -0.41; C_o    -0.67; C_p     0.22; C_q    -0.12; C_r     0.12; N_a    -0.58; N_b     0.77; 
@             O_a    -0.65; O_b    -0.66; H_a     0.08; H_b     0.08; H_c     0.03; H_d     0.04; H_e     0.03; H_f     0.04; H_g     0.02; H_h     0.03; 
@    MULPOP    dipole moment & components:      6.2492;        4.8161      3.9821      0.0000
 -----------------------------------------------------------------------------
  11  Screening settings (-IFTHRS, JTDIIS, DIFDEN, times)  -14   11    T  1.10D+02  1.11D+02
@ 11    -951.972132073        1.76959D-03   -4.07D-06    8
      Virial theorem: -V/T =      2.002625
@    MULPOP   C_a    -0.06; C_b    -0.02; C_c    -0.13; C_d    -0.07; C_e    -0.13; C_f    -0.05; C_g    -0.14; C_h    -0.08; C_i    -0.06; C_j     0.03; 
@             C_k    -0.07; C_l     0.05; C_m    -0.01; C_n    -0.41; C_o    -0.67; C_p     0.22; C_q    -0.12; C_r     0.12; N_a    -0.58; N_b     0.77; 
@             O_a    -0.65; O_b    -0.66; H_a     0.08; H_b     0.08; H_c     0.03; H_d     0.04; H_e     0.03; H_f     0.04; H_g     0.02; H_h     0.03; 
@    MULPOP    dipole moment & components:      6.1968;        4.7698      3.9560      0.0000
 -----------------------------------------------------------------------------
  12  Screening settings (-IFTHRS, JTDIIS, DIFDEN, times)  -14   12    T  1.10D+02  1.10D+02
@ 12    -951.972133643        6.04504D-04   -1.57D-06    8
      Virial theorem: -V/T =      2.002624
@    MULPOP   C_a    -0.06; C_b    -0.02; C_c    -0.13; C_d    -0.07; C_e    -0.13; C_f    -0.05; C_g    -0.14; C_h    -0.08; C_i    -0.06; C_j     0.03; 
@             C_k    -0.07; C_l     0.05; C_m    -0.01; C_n    -0.41; C_o    -0.67; C_p     0.22; C_q    -0.12; C_r     0.12; N_a    -0.58; N_b     0.77; 
@             O_a    -0.65; O_b    -0.66; H_a     0.08; H_b     0.08; H_c     0.04; H_d     0.04; H_e     0.03; H_f     0.04; H_g     0.02; H_h     0.03; 
@    MULPOP    dipole moment & components:      6.1535;        4.7308      3.9351      0.0000
 -----------------------------------------------------------------------------
  13  Screening settings (-IFTHRS, JTDIIS, DIFDEN, times)  -14   13    T  1.07D+02  1.08D+02
@ 13    -951.972133825        2.50490D-04   -1.81D-07    8
      Virial theorem: -V/T =      2.002624
@    MULPOP   C_a    -0.06; C_b    -0.02; C_c    -0.13; C_d    -0.07; C_e    -0.13; C_f    -0.05; C_g    -0.14; C_h    -0.08; C_i    -0.06; C_j     0.03; 
@             C_k    -0.07; C_l     0.05; C_m    -0.01; C_n    -0.41; C_o    -0.67; C_p     0.22; C_q    -0.12; C_r     0.12; N_a    -0.58; N_b     0.77; 
@             O_a    -0.65; O_b    -0.66; H_a     0.08; H_b     0.08; H_c     0.04; H_d     0.04; H_e     0.03; H_f     0.04; H_g     0.02; H_h     0.03; 
@    MULPOP    dipole moment & components:      6.1377;        4.7165      3.9277      0.0000
 -----------------------------------------------------------------------------
  14  Screening settings (-IFTHRS, JTDIIS, DIFDEN, times)  -14   14    T  1.02D+02  1.03D+02
@ 14    -951.972133839        1.19778D-04   -1.46D-08    8
      Virial theorem: -V/T =      2.002624
@    MULPOP   C_a    -0.06; C_b    -0.02; C_c    -0.13; C_d    -0.07; C_e    -0.13; C_f    -0.05; C_g    -0.14; C_h    -0.08; C_i    -0.06; C_j     0.03; 
@             C_k    -0.07; C_l     0.05; C_m    -0.01; C_n    -0.41; C_o    -0.67; C_p     0.22; C_q    -0.12; C_r     0.12; N_a    -0.58; N_b     0.77; 
@             O_a    -0.65; O_b    -0.66; H_a     0.08; H_b     0.08; H_c     0.04; H_d     0.04; H_e     0.03; H_f     0.04; H_g     0.02; H_h     0.03; 
@    MULPOP    dipole moment & components:      6.1350;        4.7140      3.9265      0.0000
 -----------------------------------------------------------------------------
  15  Screening settings (-IFTHRS, JTDIIS, DIFDEN, times)  -14   15    T  9.99D+01  1.01D+02
@ 15    -951.972133842        5.26057D-05   -3.17D-09    8
      Virial theorem: -V/T =      2.002624
@    MULPOP   C_a    -0.06; C_b    -0.02; C_c    -0.13; C_d    -0.07; C_e    -0.13; C_f    -0.05; C_g    -0.14; C_h    -0.08; C_i    -0.06; C_j     0.03; 
@             C_k    -0.07; C_l     0.05; C_m    -0.01; C_n    -0.41; C_o    -0.67; C_p     0.22; C_q    -0.12; C_r     0.12; N_a    -0.58; N_b     0.77; 
@             O_a    -0.65; O_b    -0.66; H_a     0.08; H_b     0.08; H_c     0.04; H_d     0.04; H_e     0.03; H_f     0.04; H_g     0.02; H_h     0.03; 
@    MULPOP    dipole moment & components:      6.1338;        4.7128      3.9259      0.0000
 -----------------------------------------------------------------------------
  16  Screening settings (-IFTHRS, JTDIIS, DIFDEN, times)  -14   16    T  9.72D+01  9.81D+01
@ 16    -951.972133843        2.27886D-05   -4.34D-10    8
      Virial theorem: -V/T =      2.002624
@    MULPOP   C_a    -0.06; C_b    -0.02; C_c    -0.13; C_d    -0.07; C_e    -0.13; C_f    -0.05; C_g    -0.14; C_h    -0.08; C_i    -0.06; C_j     0.03; 
@             C_k    -0.07; C_l     0.05; C_m    -0.01; C_n    -0.41; C_o    -0.67; C_p     0.22; C_q    -0.12; C_r     0.12; N_a    -0.58; N_b     0.77; 
@             O_a    -0.65; O_b    -0.66; H_a     0.08; H_b     0.08; H_c     0.04; H_d     0.04; H_e     0.03; H_f     0.04; H_g     0.02; H_h     0.03; 
@    MULPOP    dipole moment & components:      6.1335;        4.7126      3.9257      0.0000
 -----------------------------------------------------------------------------
  17  Screening settings (-IFTHRS, JTDIIS, DIFDEN, times)  -14   17    T  9.70D+01  9.83D+01
@ 17    -951.972133843        1.46125D-05   -1.31D-10    8
      Virial theorem: -V/T =      2.002624
@    MULPOP   C_a    -0.06; C_b    -0.02; C_c    -0.13; C_d    -0.07; C_e    -0.13; C_f    -0.05; C_g    -0.14; C_h    -0.08; C_i    -0.06; C_j     0.03; 
@             C_k    -0.07; C_l     0.05; C_m    -0.01; C_n    -0.41; C_o    -0.67; C_p     0.22; C_q    -0.12; C_r     0.12; N_a    -0.58; N_b     0.77; 
@             O_a    -0.65; O_b    -0.66; H_a     0.08; H_b     0.08; H_c     0.04; H_d     0.04; H_e     0.03; H_f     0.04; H_g     0.02; H_h     0.03; 
@    MULPOP    dipole moment & components:      6.1334;        4.7125      3.9257      0.0000
 -----------------------------------------------------------------------------
  18  Screening settings (-IFTHRS, JTDIIS, DIFDEN, times)  -14   18    T  9.74D+01  9.82D+01
@ 18    -951.972133843        6.56050D-06   -4.14D-11    8

@ *** DIIS converged in  18 iterations !
@     Converged SCF energy, gradient:   -951.972133842848    6.56D-06
    - total time used in SIRFCK :              0.00 seconds


 *** SCF orbital energy analysis ***

 Only the 20 lowest virtual orbital energies printed in each symmetry.

 Number of electrons :  158
 Orbital occupations :   79

 Sym       Hartree-Fock orbital energies

1 A     -20.58613969   -20.58329039   -15.83649951   -15.59462731   -11.30518408
        -11.28805825   -11.28643419   -11.27705053   -11.26889885   -11.26287041
        -11.25810010   -11.25755787   -11.25578017   -11.25430727   -11.25268408
        -11.25197642   -11.24924141   -11.24553323   -11.24144508   -11.23676219
        -11.23164856   -11.22903424    -1.57647256    -1.37434355    -1.23958346
         -1.14166290    -1.12574889    -1.11418081    -1.10001966    -1.08100645
         -1.05746271    -1.02981266    -0.99843967    -0.96386815    -0.93574005
         -0.88257085    -0.84567751    -0.81326605    -0.79121906    -0.78299644
         -0.77429678    -0.76955415    -0.75776440    -0.75500105    -0.73334356
         -0.71975567    -0.70997687    -0.69433975    -0.68304389    -0.66886891
         -0.66394340    -0.64219664    -0.63444764    -0.61766497    -0.60142164
         -0.59304820    -0.57712585    -0.56152015    -0.55894463    -0.54429973
         -0.53615779    -0.53234794    -0.52713655    -0.52325356    -0.51569583
         -0.50909163    -0.50107653    -0.49722000    -0.48210384    -0.47908951
         -0.47665395    -0.46385219    -0.43906217    -0.43749278    -0.40718353
         -0.36930943    -0.32598425    -0.27917624    -0.23341812     0.00884014
          0.01475959     0.02221125     0.02606083     0.02756289     0.03020158
          0.03445438     0.03869467     0.04460759     0.04894648     0.05161858
          0.05623412     0.06209084     0.06886772     0.07713905     0.07796844
          0.07920293     0.08125158     0.08221248     0.08452022

    E(LUMO) :     0.00884014 au (symmetry 1)
  - E(HOMO) :    -0.23341812 au (symmetry 1)
  ------------------------------------------
    gap     :     0.24225826 au

 --- Writing SIRIFC interface file

 CPU and wall time for SCF :    2341.834    2366.150


                       .-----------------------------------.
                       | --- Final results from SIRIUS --- |
                       `-----------------------------------'


@    Spin multiplicity:           1
@    Spatial symmetry:            1 ( irrep  A   in C1  )
@    Total charge of molecule:    0

@    Final HF energy:            -951.972133842848                 
@    Nuclear repulsion:          1273.523417940457
@    Electronic energy:         -2225.495551783304

@    Final gradient norm:           0.000006560504

 
     Date and time (Linux)  : Wed May 14 14:27:04 2025
     Host name              : xm045                                   

File label for MO orbitals:  14May25   FOCKDIIS

 (Only coefficients > 0.0100 are printed.)

 Molecular orbitals for symmetry species 1  (A  )
 ------------------------------------------------

    Orbital        70       71       72       73       74       75       76
   2 C_a :1s     0.0181  -0.0054  -0.0000   0.0000   0.0000  -0.0000   0.0000
   4 C_a :1s    -0.0836   0.0453   0.0000  -0.0000   0.0000   0.0000  -0.0000
   5 C_a :1s     0.0883  -0.0799  -0.0000   0.0000   0.0000   0.0000   0.0000
   6 C_a :2px   -0.0309   0.0019  -0.0000   0.0000  -0.0000  -0.0000   0.0000
   7 C_a :2py   -0.0521   0.0101   0.0000  -0.0000   0.0000   0.0000  -0.0000
   8 C_a :2pz    0.0000  -0.0000  -0.0386  -0.1905   0.0692   0.2504  -0.1220
  12 C_a :2px   -0.0640   0.0381   0.0000   0.0000  -0.0000  -0.0000   0.0000
  15 C_a :2px   -0.0835  -0.0143  -0.0000   0.0000  -0.0000  -0.0000   0.0000
  16 C_a :2py   -0.0828   0.0066   0.0000   0.0000  -0.0000  -0.0000   0.0000
  26 C_a :3d1+   0.0000  -0.0000  -0.0058  -0.0105   0.0045   0.0073   0.0054
  28 C_a :3d2-  -0.0280  -0.0176  -0.0000   0.0000  -0.0000  -0.0000   0.0000
  29 C_a :3d1-   0.0000   0.0000   0.0172   0.0136  -0.0091  -0.0094   0.0035
  31 C_a :3d1+  -0.0000   0.0000   0.0153   0.0068  -0.0038   0.0038  -0.0006
  32 C_a :3d2+   0.0435   0.0092  -0.0000   0.0000  -0.0000  -0.0000   0.0000
  50 C_b :1s     0.1012   0.0007   0.0000  -0.0000   0.0000   0.0000  -0.0000
  51 C_b :1s     0.0412   0.0776  -0.0000   0.0000   0.0000   0.0000   0.0000
  52 C_b :2px    0.0279  -0.0008   0.0000  -0.0000   0.0000   0.0000  -0.0000
  53 C_b :2py    0.0288   0.0006   0.0000  -0.0000   0.0000   0.0000  -0.0000
  54 C_b :2pz   -0.0000   0.0000  -0.1376  -0.2288   0.0902   0.1650   0.0536
  58 C_b :2px   -0.0152   0.0308   0.0000   0.0000  -0.0000   0.0000   0.0000
  59 C_b :2py    0.0339   0.0083  -0.0000  -0.0000  -0.0000   0.0000  -0.0000
  61 C_b :2px   -0.0433  -0.0233   0.0000   0.0000  -0.0000  -0.0000   0.0000
  62 C_b :2py    0.0117   0.0289  -0.0000   0.0000  -0.0000   0.0000   0.0000
  70 C_b :3d1-   0.0000  -0.0000  -0.0071  -0.0047   0.0024  -0.0050   0.0116
  72 C_b :3d1+   0.0000  -0.0000   0.0007   0.0082  -0.0025  -0.0142   0.0104
  74 C_b :3d2-  -0.0465  -0.0664  -0.0000   0.0000  -0.0000  -0.0000   0.0000
  77 C_b :3d1+  -0.0000   0.0000   0.0153   0.0099  -0.0036  -0.0023   0.0015
  78 C_b :3d2+   0.0448  -0.0183  -0.0000   0.0000  -0.0000  -0.0000   0.0000
  96 C_c :1s    -0.0149   0.0100   0.0000  -0.0000  -0.0000  -0.0000  -0.0000
  97 C_c :1s     0.0040  -0.0517  -0.0000   0.0000  -0.0000  -0.0000   0.0000
  98 C_c :2px   -0.0158   0.0018  -0.0000   0.0000   0.0000  -0.0000   0.0000
  99 C_c :2py   -0.0275  -0.0001   0.0000   0.0000  -0.0000  -0.0000  -0.0000
 100 C_c :2pz   -0.0000   0.0000  -0.2397  -0.1667   0.0741  -0.0875   0.2595
 105 C_c :2py    0.0239   0.0030   0.0000  -0.0000   0.0000   0.0000  -0.0000
 107 C_c :2px    0.0095   0.0188  -0.0000   0.0000  -0.0000  -0.0000   0.0000
 108 C_c :2py    0.0289   0.0136  -0.0000   0.0000  -0.0000  -0.0000   0.0000
 109 C_c :2pz   -0.0000   0.0000  -0.0044  -0.0016   0.0060  -0.0038   0.0117
 118 C_c :3d1+   0.0000  -0.0000  -0.0099  -0.0013   0.0010  -0.0120   0.0100
 120 C_c :3d2-  -0.0006  -0.0200  -0.0000   0.0000   0.0000  -0.0000   0.0000
 124 C_c :3d2+   0.0254  -0.0313  -0.0000   0.0000  -0.0000  -0.0000   0.0000
 142 C_d :1s    -0.0431  -0.0019  -0.0000   0.0000  -0.0000   0.0000   0.0000
 143 C_d :1s    -0.0549  -0.0059  -0.0000  -0.0000  -0.0000   0.0000   0.0000
 144 C_d :2px    0.0138  -0.0015   0.0000  -0.0000  -0.0000   0.0000  -0.0000
 145 C_d :2py    0.0146  -0.0001  -0.0000   0.0000  -0.0000  -0.0000   0.0000
 146 C_d :2pz   -0.0000   0.0000  -0.2488  -0.0560   0.0321  -0.2091   0.1951
 150 C_d :2px   -0.0072  -0.0109  -0.0000  -0.0000   0.0000  -0.0000  -0.0000
 151 C_d :2py   -0.0113  -0.0037  -0.0000  -0.0000   0.0000   0.0000   0.0000
 153 C_d :2px   -0.0432   0.0120  -0.0000   0.0000  -0.0000  -0.0000   0.0000
 154 C_d :2py   -0.0716  -0.0119  -0.0000   0.0000  -0.0000  -0.0000   0.0000
 164 C_d :3d1+  -0.0000   0.0000   0.0093   0.0092  -0.0040   0.0018  -0.0152
 166 C_d :3d2-   0.0239   0.0257   0.0000  -0.0000   0.0000   0.0000  -0.0000
 167 C_d :3d1-   0.0000  -0.0000  -0.0064  -0.0058   0.0030  -0.0009   0.0102
 170 C_d :3d2+   0.0378   0.0086  -0.0000   0.0000  -0.0000   0.0000   0.0000
 188 C_e :1s     0.0189  -0.0258  -0.0000   0.0000  -0.0000  -0.0000   0.0000
 189 C_e :1s    -0.0303  -0.0024   0.0000  -0.0000   0.0000  -0.0000  -0.0000
 191 C_e :2py   -0.0141   0.0002   0.0000  -0.0000   0.0000   0.0000  -0.0000
 192 C_e :2pz    0.0000  -0.0000  -0.1919   0.1326  -0.0455  -0.2324  -0.0983
 197 C_e :2py   -0.0239  -0.0115   0.0000   0.0000   0.0000   0.0000   0.0000
 199 C_e :2px   -0.0262  -0.0155   0.0000   0.0000  -0.0000  -0.0000   0.0000
 200 C_e :2py   -0.0400  -0.0019  -0.0000   0.0000  -0.0000  -0.0000   0.0000
 210 C_e :3d1+  -0.0000   0.0000  -0.0042   0.0102  -0.0039  -0.0041  -0.0140
 212 C_e :3d2-   0.0075   0.0266   0.0000  -0.0000  -0.0000   0.0000  -0.0000
 215 C_e :3d1+   0.0000  -0.0000  -0.0171  -0.0008   0.0005  -0.0072   0.0034
 216 C_e :3d2+   0.0352   0.0036  -0.0000  -0.0000   0.0000   0.0000  -0.0000
 234 C_f :1s    -0.0145  -0.0192   0.0000  -0.0000   0.0000  -0.0000  -0.0000
 235 C_f :1s     0.1605   0.0102  -0.0000   0.0000   0.0000   0.0000  -0.0000
 238 C_f :2pz    0.0000  -0.0000  -0.1082   0.2125  -0.0813  -0.1168  -0.2242
 242 C_f :2px    0.0232  -0.0095  -0.0000   0.0000  -0.0000  -0.0000   0.0000
 243 C_f :2py    0.0015  -0.0135  -0.0000   0.0000  -0.0000  -0.0000   0.0000
 245 C_f :2px   -0.0290  -0.0032  -0.0000   0.0000  -0.0000  -0.0000   0.0000
 246 C_f :2py    0.0157   0.0085  -0.0000   0.0000  -0.0000  -0.0000   0.0000
 256 C_f :3d1+  -0.0000   0.0000   0.0079  -0.0042   0.0013   0.0134   0.0028
 258 C_f :3d2-  -0.0209  -0.0077   0.0000   0.0000  -0.0000  -0.0000   0.0000
 259 C_f :3d1-   0.0000   0.0000  -0.0190   0.0036  -0.0021  -0.0081  -0.0000
 261 C_f :3d1+   0.0000  -0.0000  -0.0168  -0.0019   0.0004  -0.0034   0.0086
 262 C_f :3d2+   0.0131  -0.0039  -0.0000  -0.0000   0.0000   0.0000   0.0000
 281 C_g :1s    -0.0342   0.0745  -0.0000   0.0000   0.0000   0.0000   0.0000
 284 C_g :2pz    0.0000  -0.0000   0.0403   0.2308  -0.0948   0.1353  -0.1856
 288 C_g :2px   -0.0221  -0.0194  -0.0000  -0.0000   0.0000   0.0000  -0.0000
 291 C_g :2px   -0.0094   0.0221  -0.0000   0.0000   0.0000   0.0000   0.0000
 292 C_g :2py    0.0121  -0.0063  -0.0000   0.0000  -0.0000  -0.0000   0.0000
 302 C_g :3d1+   0.0000  -0.0000   0.0048   0.0064  -0.0028   0.0129   0.0015
 304 C_g :3d2-  -0.0079  -0.0202  -0.0000   0.0000  -0.0000  -0.0000   0.0000
 305 C_g :3d1-   0.0000  -0.0000  -0.0184   0.0034  -0.0018  -0.0098   0.0046
 307 C_g :3d1+  -0.0000   0.0000  -0.0238   0.0132  -0.0055  -0.0010  -0.0029
 308 C_g :3d2+  -0.0024  -0.0209   0.0000  -0.0000   0.0000   0.0000  -0.0000
 326 C_h :1s     0.0139   0.0187   0.0000   0.0000  -0.0000   0.0000  -0.0000
 327 C_h :1s    -0.1296  -0.0873   0.0000  -0.0000  -0.0000  -0.0000   0.0000
 330 C_h :2pz   -0.0000   0.0000   0.1353   0.1601  -0.0691   0.2356  -0.0191
 334 C_h :2px   -0.0118  -0.0198  -0.0000  -0.0000   0.0000   0.0000  -0.0000
 337 C_h :2px   -0.0035   0.0336  -0.0000   0.0000  -0.0000  -0.0000   0.0000
 338 C_h :2py   -0.0400   0.0049   0.0000  -0.0000  -0.0000  -0.0000   0.0000
 346 C_h :3d1-   0.0000  -0.0000   0.0061  -0.0007   0.0002   0.0076   0.0108
 348 C_h :3d1+   0.0000  -0.0000  -0.0011  -0.0106   0.0043  -0.0043   0.0135
 351 C_h :3d1-   0.0000   0.0000  -0.0198   0.0159  -0.0061   0.0050  -0.0019
 353 C_h :3d1+  -0.0000   0.0000  -0.0222   0.0120  -0.0048  -0.0046   0.0008
 354 C_h :3d2+   0.0191   0.0158   0.0000  -0.0000  -0.0000  -0.0000  -0.0000
 373 C_i :1s     0.1256  -0.0339  -0.0000  -0.0000   0.0000   0.0000  -0.0000
 376 C_i :2pz   -0.0000   0.0000   0.2429  -0.0115  -0.0010   0.2199   0.2432
 381 C_i :2py    0.0033  -0.0102   0.0000   0.0000   0.0000   0.0000  -0.0000
 382 C_i :2pz    0.0000  -0.0000  -0.0030  -0.0025   0.0007   0.0009   0.0105
 383 C_i :2px   -0.0238  -0.0262   0.0000   0.0000  -0.0000  -0.0000   0.0000
 384 C_i :2py   -0.0572  -0.0082  -0.0000   0.0000  -0.0000  -0.0000   0.0000
 385 C_i :2pz   -0.0000   0.0000   0.0029  -0.0008  -0.0013   0.0064   0.0109
 394 C_i :3d1+   0.0000  -0.0000   0.0094  -0.0060   0.0023   0.0028   0.0133
 396 C_i :3d2-   0.0071   0.0141   0.0000  -0.0000   0.0000   0.0000  -0.0000
 397 C_i :3d1-  -0.0000   0.0000  -0.0134   0.0161  -0.0064   0.0009  -0.0049
 399 C_i :3d1+   0.0000  -0.0000  -0.0152   0.0182  -0.0076   0.0123   0.0084
 400 C_i :3d2+   0.0183  -0.0024   0.0000  -0.0000   0.0000   0.0000  -0.0000
 418 C_j :1s    -0.0209  -0.0101  -0.0000   0.0000  -0.0000  -0.0000   0.0000
 419 C_j :1s     0.0355   0.0894  -0.0000  -0.0000   0.0000   0.0000  -0.0000
 422 C_j :2pz   -0.0000   0.0000   0.2721  -0.1269   0.0467   0.0912   0.2429
 427 C_j :2py   -0.0162  -0.0162   0.0000   0.0000  -0.0000  -0.0000   0.0000
 429 C_j :2px   -0.0002  -0.0159  -0.0000   0.0000  -0.0000   0.0000   0.0000
 430 C_j :2py    0.0179   0.0147  -0.0000   0.0000   0.0000   0.0000   0.0000
 440 C_j :3d1+  -0.0000   0.0000  -0.0089  -0.0011   0.0007  -0.0129  -0.0126
 443 C_j :3d1-   0.0000  -0.0000  -0.0108   0.0136  -0.0058   0.0127   0.0091
 445 C_j :3d1+   0.0000  -0.0000  -0.0129   0.0184  -0.0078   0.0091   0.0011
 446 C_j :3d2+   0.0109   0.0038   0.0000  -0.0000   0.0000   0.0000  -0.0000
 464 C_k :1s     0.0183   0.0027  -0.0000   0.0000   0.0000  -0.0000   0.0000
 465 C_k :1s    -0.0864  -0.0287   0.0000  -0.0000  -0.0000  -0.0000  -0.0000
 468 C_k :2pz    0.0000  -0.0000   0.2621  -0.2435   0.0966  -0.1569   0.0131
 472 C_k :2px    0.0019  -0.0113  -0.0000   0.0000   0.0000  -0.0000   0.0000
 473 C_k :2py   -0.0108  -0.0120  -0.0000   0.0000  -0.0000  -0.0000   0.0000
 475 C_k :2px   -0.0116   0.0207  -0.0000  -0.0000  -0.0000  -0.0000  -0.0000
 476 C_k :2py    0.0258   0.0266  -0.0000   0.0000  -0.0000  -0.0000   0.0000
 486 C_k :3d1+  -0.0000   0.0000   0.0062  -0.0088   0.0036  -0.0117  -0.0099
 489 C_k :3d1-   0.0000  -0.0000  -0.0007   0.0118  -0.0052   0.0121   0.0058
 510 C_l :1s     0.0016   0.0129   0.0000   0.0000  -0.0000   0.0000   0.0000
 511 C_l :1s     0.0395  -0.0179  -0.0000   0.0000   0.0000   0.0000   0.0000
 514 C_l :2pz    0.0000  -0.0000   0.2055  -0.2395   0.0966  -0.2434  -0.1550
 521 C_l :2px   -0.0463  -0.0091  -0.0000   0.0000  -0.0000  -0.0000   0.0000
 522 C_l :2py   -0.0283  -0.0144   0.0000  -0.0000  -0.0000  -0.0000  -0.0000
 532 C_l :3d1+  -0.0000   0.0000  -0.0106   0.0107  -0.0043   0.0059  -0.0042
 537 C_l :3d1+   0.0000  -0.0000   0.0023   0.0077  -0.0033   0.0112   0.0107
 557 C_m :1s     0.0333   0.0253   0.0000  -0.0000   0.0000   0.0000  -0.0000
 560 C_m :2pz    0.0000  -0.0000   0.0839  -0.1376   0.0566  -0.2105  -0.2574
 566 C_m :2pz   -0.0000   0.0000  -0.0022   0.0011  -0.0006  -0.0030  -0.0107
 567 C_m :2px    0.0212   0.0201   0.0000  -0.0000   0.0000   0.0000  -0.0000
 569 C_m :2pz    0.0000  -0.0000   0.0007  -0.0025   0.0012  -0.0062  -0.0118
 603 C_n :1s     0.0008  -0.0308  -0.0000   0.0000  -0.0000   0.0000   0.0000
 606 C_n :2pz   -0.0000  -0.0000  -0.0271  -0.0025   0.0018  -0.0491  -0.1039
 622 C_n :3d1-  -0.0000   0.0000  -0.0064   0.0075  -0.0030   0.0094   0.0105
 624 C_n :3d1+   0.0000  -0.0000  -0.0064   0.0104  -0.0043   0.0159   0.0194
 646 C_o :1s     0.1024   0.0204  -0.0000   0.0000  -0.0000   0.0000   0.0000
 648 C_o :1s     0.0203  -0.0352   0.0000   0.0000  -0.0000  -0.0000   0.0000
 649 C_o :1s    -0.5054  -0.0855   0.0000  -0.0000  -0.0000  -0.0000   0.0000
 650 C_o :2px   -0.1294   0.0582  -0.0000   0.0000  -0.0000  -0.0000   0.0000
 651 C_o :2py   -0.2826  -0.1583  -0.0000  -0.0000   0.0000   0.0000  -0.0000
 652 C_o :2pz   -0.0000   0.0000   0.1872   0.2060  -0.0987  -0.2606   0.2768
 653 C_o :2px    0.0121   0.0081   0.0000  -0.0000   0.0000  -0.0000  -0.0000
 654 C_o :2py    0.0274   0.0042  -0.0000   0.0000  -0.0000  -0.0000   0.0000
 656 C_o :2px    0.1709  -0.1800   0.0000  -0.0000  -0.0000  -0.0000  -0.0000
 657 C_o :2py    0.0502   0.0321   0.0000  -0.0000   0.0000  -0.0000  -0.0000
 658 C_o :2pz    0.0000  -0.0000  -0.0003   0.0072   0.0068  -0.0060   0.0108
 659 C_o :2px   -0.0779   0.0730   0.0000   0.0000  -0.0000  -0.0000   0.0000
 660 C_o :2py    0.0422   0.0861   0.0000  -0.0000  -0.0000  -0.0000  -0.0000
 661 C_o :2pz   -0.0000   0.0000   0.0044   0.0109   0.0123  -0.0076   0.0104
 666 C_o :3d2+  -0.0104  -0.0011  -0.0000  -0.0000  -0.0000  -0.0000  -0.0000
 670 C_o :3d1+  -0.0000   0.0000   0.0109   0.0131  -0.0001  -0.0116   0.0095
 672 C_o :3d2-  -0.0435  -0.0117  -0.0000   0.0000   0.0000  -0.0000  -0.0000
 674 C_o :3d0   -0.0001   0.0155  -0.0000   0.0000  -0.0000   0.0000   0.0000
 675 C_o :3d1+   0.0000  -0.0000   0.0044   0.0202   0.0259  -0.0107   0.0128
 676 C_o :3d2+   0.0746   0.0297  -0.0000   0.0000  -0.0000  -0.0000   0.0000
 692 C_p :1s    -0.0328   0.0471  -0.0000   0.0000  -0.0000  -0.0000   0.0000
 694 C_p :1s    -0.1792   0.2317  -0.0000   0.0000   0.0000   0.0000   0.0000
 695 C_p :1s     0.2057  -0.1409  -0.0000   0.0000   0.0000   0.0000  -0.0000
 696 C_p :2px    0.1310   0.0068   0.0000  -0.0000   0.0000   0.0000  -0.0000
 697 C_p :2py    0.0952  -0.0744  -0.0000   0.0000  -0.0000  -0.0000   0.0000
 698 C_p :2pz   -0.0000   0.0000   0.2197   0.2128  -0.0907  -0.2158   0.1726
 702 C_p :2px    0.0627  -0.0247   0.0000  -0.0000  -0.0000  -0.0000  -0.0000
 703 C_p :2py   -0.0385   0.1396   0.0000   0.0000  -0.0000   0.0000   0.0000
 704 C_p :2pz    0.0000  -0.0000  -0.0062  -0.0160  -0.0253   0.0022   0.0011
 705 C_p :2px   -0.1027  -0.0880  -0.0000  -0.0000   0.0000  -0.0000  -0.0000
 706 C_p :2py   -0.0584  -0.1256  -0.0000   0.0000   0.0000   0.0000   0.0000
 707 C_p :2pz   -0.0000   0.0000   0.0026  -0.0046  -0.0226  -0.0059   0.0074
 713 C_p :3d2-  -0.0007  -0.0204   0.0000  -0.0000   0.0000   0.0000  -0.0000
 716 C_p :3d1+  -0.0000   0.0000  -0.0066  -0.0083   0.0048   0.0131  -0.0162
 718 C_p :3d2-  -0.0370  -0.0007   0.0000  -0.0000   0.0000   0.0000  -0.0000
 722 C_p :3d2+   0.0653  -0.0215  -0.0000  -0.0000   0.0000   0.0000   0.0000
 736 C_p :4f3+  -0.0031  -0.0134   0.0000  -0.0000   0.0000  -0.0000  -0.0000
 738 C_q :1s     0.0358  -0.0045   0.0000   0.0000  -0.0000  -0.0000   0.0000
 740 C_q :1s     0.1523  -0.1185  -0.0000  -0.0000   0.0000  -0.0000  -0.0000
 741 C_q :1s     0.2059   0.2791  -0.0000  -0.0000   0.0000   0.0000  -0.0000
 742 C_q :2px   -0.0721  -0.0294  -0.0000   0.0000   0.0000   0.0000   0.0000
 743 C_q :2py   -0.0949   0.0464   0.0000  -0.0000   0.0000   0.0000  -0.0000
 744 C_q :2pz    0.0000  -0.0000   0.2020   0.1099  -0.0564   0.0049  -0.1484
 748 C_q :2px    0.0471   0.1288  -0.0000   0.0000  -0.0000  -0.0000   0.0000
 749 C_q :2py   -0.0491   0.1312   0.0000  -0.0000  -0.0000   0.0000  -0.0000
 750 C_q :2pz   -0.0000   0.0000   0.0011   0.0046   0.0127   0.0049  -0.0092
 751 C_q :2px   -0.0117   0.0688   0.0000   0.0000  -0.0000  -0.0000   0.0000
 752 C_q :2py   -0.0771   0.0041   0.0000  -0.0000  -0.0000  -0.0000  -0.0000
 762 C_q :3d1+  -0.0000   0.0000   0.0054  -0.0012   0.0001   0.0091  -0.0141
 764 C_q :3d2-   0.0434   0.0578  -0.0000  -0.0000   0.0000   0.0000  -0.0000
 765 C_q :3d1-   0.0000  -0.0000   0.0103   0.0112  -0.0038  -0.0119   0.0123
 766 C_q :3d0   -0.0071  -0.0161  -0.0000  -0.0000   0.0000  -0.0000   0.0000
 767 C_q :3d1+   0.0000  -0.0000   0.0157   0.0158  -0.0076  -0.0106   0.0042
 768 C_q :3d2+   0.0360   0.0412  -0.0000   0.0000  -0.0000   0.0000   0.0000
 784 C_r :1s    -0.0240  -0.0094  -0.0000   0.0000  -0.0000   0.0000   0.0000
 786 C_r :1s    -0.1197  -0.1839   0.0000  -0.0000   0.0000  -0.0000  -0.0000
 787 C_r :1s    -0.2243  -0.0466   0.0000   0.0000  -0.0000  -0.0000   0.0000
 788 C_r :2px    0.0644   0.0236   0.0000  -0.0000  -0.0000   0.0000  -0.0000
 789 C_r :2py    0.0548  -0.0118  -0.0000   0.0000  -0.0000  -0.0000   0.0000
 790 C_r :2pz    0.0000  -0.0000   0.1226  -0.0120  -0.0067   0.1485  -0.2344
 794 C_r :2px    0.0696   0.0509  -0.0000  -0.0000   0.0000  -0.0000  -0.0000
 795 C_r :2py    0.0703  -0.0060  -0.0000   0.0000   0.0000  -0.0000   0.0000
 797 C_r :2px    0.0617   0.0404  -0.0000  -0.0000   0.0000   0.0000  -0.0000
 798 C_r :2py   -0.0124  -0.0151  -0.0000   0.0000  -0.0000  -0.0000   0.0000
 799 C_r :2pz    0.0000  -0.0000   0.0027   0.0050   0.0113   0.0036  -0.0105
 810 C_r :3d2-   0.0451   0.0532  -0.0000  -0.0000  -0.0000   0.0000   0.0000
 811 C_r :3d1-  -0.0000   0.0000   0.0151   0.0119  -0.0111  -0.0047  -0.0004
 813 C_r :3d1+   0.0000  -0.0000   0.0149   0.0145  -0.0049  -0.0108   0.0095
 814 C_r :3d2+   0.0170  -0.0206  -0.0000   0.0000  -0.0000   0.0000   0.0000
 836 N_a :2pz   -0.0000   0.0000  -0.1658   0.1839  -0.0743   0.2158   0.2253
 842 N_a :2pz    0.0000  -0.0000  -0.0042   0.0067  -0.0028   0.0096   0.0128
 845 N_a :2pz   -0.0000   0.0000  -0.0066   0.0090  -0.0039   0.0137   0.0186
 876 N_b :1s     0.0259   0.0086  -0.0000   0.0000  -0.0000  -0.0000   0.0000
 878 N_b :1s     0.1715   0.0412  -0.0000   0.0000  -0.0000  -0.0000  -0.0000
 879 N_b :1s     0.3141   0.0940  -0.0000   0.0000   0.0000   0.0000  -0.0000
 880 N_b :2px    0.0519   0.1145   0.0000   0.0000  -0.0000   0.0000   0.0000
 881 N_b :2py    0.2663   0.0705   0.0000   0.0000  -0.0000  -0.0000   0.0000
 882 N_b :2pz   -0.0000   0.0000  -0.0263  -0.0241   0.0025   0.0156  -0.0041
 886 N_b :2px    0.0055   0.0121  -0.0000   0.0000   0.0000   0.0000   0.0000
 887 N_b :2py    0.0469   0.0331   0.0000  -0.0000   0.0000   0.0000  -0.0000
 889 N_b :2px    0.0341  -0.0838   0.0000  -0.0000   0.0000   0.0000   0.0000
 890 N_b :2py    0.0699   0.0107  -0.0000   0.0000  -0.0000   0.0000   0.0000
 892 N_b :3d2-   0.0172  -0.0069   0.0000  -0.0000  -0.0000  -0.0000  -0.0000
 895 N_b :3d1+  -0.0000  -0.0000   0.0013   0.0082   0.0174  -0.0010   0.0013
 896 N_b :3d2+  -0.0145  -0.0157  -0.0000  -0.0000   0.0000   0.0000  -0.0000
 897 N_b :3d2-   0.0436  -0.0116  -0.0000   0.0000   0.0000  -0.0000   0.0000
 898 N_b :3d1-   0.0000  -0.0000   0.0073   0.0020  -0.0209  -0.0118   0.0128
 900 N_b :3d1+   0.0000   0.0000   0.0041   0.0238   0.0493  -0.0033   0.0042
 901 N_b :3d2+  -0.0420  -0.0380  -0.0000  -0.0000  -0.0000  -0.0000  -0.0000
 902 N_b :3d2-  -0.0421   0.1005  -0.0000   0.0000   0.0000   0.0000   0.0000
 905 N_b :3d1+  -0.0000   0.0000   0.0017  -0.0043  -0.0159  -0.0017   0.0009
 906 N_b :3d2+  -0.0138   0.0648   0.0000   0.0000  -0.0000   0.0000   0.0000
 914 N_b :4f3-  -0.0107  -0.0012   0.0000  -0.0000   0.0000   0.0000  -0.0000
 924 O_a :1s     0.0144  -0.0270  -0.0000  -0.0000   0.0000   0.0000  -0.0000
 925 O_a :1s    -0.0228  -0.0938   0.0000  -0.0000   0.0000  -0.0000   0.0000
 926 O_a :2px   -0.0260  -0.2836  -0.0000   0.0000   0.0000   0.0000   0.0000
 927 O_a :2py   -0.7807   0.3782   0.0000  -0.0000  -0.0000  -0.0000  -0.0000
 928 O_a :2pz    0.0000  -0.0000  -0.0749  -0.3072  -0.5651   0.0720  -0.0839
 932 O_a :2px    0.0035  -0.0107   0.0000  -0.0000  -0.0000  -0.0000  -0.0000
 933 O_a :2py   -0.0745   0.0610  -0.0000   0.0000   0.0000   0.0000   0.0000
 934 O_a :2pz   -0.0000   0.0000  -0.0044  -0.0265  -0.0558   0.0039  -0.0060
 935 O_a :2px   -0.0027  -0.0277  -0.0000   0.0000   0.0000   0.0000   0.0000
 936 O_a :2py   -0.0542   0.0357   0.0000  -0.0000  -0.0000  -0.0000  -0.0000
 937 O_a :2pz    0.0000  -0.0000  -0.0026  -0.0191  -0.0398   0.0035  -0.0060
 943 O_a :3d2-  -0.0116   0.0062   0.0000   0.0000  -0.0000   0.0000   0.0000
 946 O_a :3d1+   0.0000  -0.0000  -0.0023  -0.0081  -0.0146   0.0017  -0.0017
 947 O_a :3d2+  -0.0013  -0.0126   0.0000   0.0000   0.0000   0.0000   0.0000
 948 O_a :3d2-  -0.0243   0.0192  -0.0000   0.0000   0.0000   0.0000   0.0000
 951 O_a :3d1+  -0.0000   0.0000  -0.0016  -0.0082  -0.0175   0.0007  -0.0008
 952 O_a :3d2+   0.0048  -0.0107   0.0000  -0.0000  -0.0000  -0.0000  -0.0000
 970 O_b :1s    -0.0071   0.0568  -0.0000  -0.0000   0.0000   0.0000  -0.0000
 971 O_b :1s    -0.0548   0.0728  -0.0000   0.0000  -0.0000   0.0000   0.0000
 972 O_b :2px   -0.0294  -0.6311   0.0000   0.0000   0.0000   0.0000   0.0000
 973 O_b :2py   -0.3806  -0.5320   0.0000  -0.0000   0.0000   0.0000  -0.0000
 974 O_b :2pz    0.0000   0.0000  -0.0485   0.1749   0.6266   0.0908  -0.0879
 978 O_b :2px   -0.0111  -0.0770  -0.0000  -0.0000  -0.0000  -0.0000  -0.0000
 979 O_b :2py   -0.0185  -0.0660  -0.0000   0.0000  -0.0000  -0.0000  -0.0000
 980 O_b :2pz   -0.0000  -0.0000  -0.0037   0.0183   0.0595   0.0066  -0.0062
 981 O_b :2px   -0.0084  -0.0477   0.0000   0.0000   0.0000   0.0000   0.0000
 982 O_b :2py   -0.0326  -0.0253   0.0000  -0.0000   0.0000   0.0000  -0.0000
 983 O_b :2pz    0.0000   0.0000  -0.0010   0.0146   0.0444   0.0050  -0.0064
 989 O_b :3d2-   0.0101  -0.0047   0.0000   0.0000  -0.0000   0.0000   0.0000
 990 O_b :3d1-   0.0000  -0.0000  -0.0008   0.0039   0.0125   0.0011  -0.0007
 992 O_b :3d1+  -0.0000  -0.0000   0.0014  -0.0024  -0.0107  -0.0019   0.0017
 993 O_b :3d2+   0.0023   0.0151   0.0000  -0.0000  -0.0000  -0.0000  -0.0000
 995 O_b :3d1-   0.0000  -0.0000  -0.0012   0.0052   0.0168   0.0016  -0.0011
 996 O_b :3d0    0.0010   0.0102  -0.0000  -0.0000   0.0000   0.0000  -0.0000
 998 O_b :3d2+   0.0061   0.0325   0.0000   0.0000   0.0000   0.0000   0.0000
1013 H_a :1s    -0.0109   0.0071   0.0000  -0.0000   0.0000   0.0000  -0.0000
1015 H_a :1s    -0.0824  -0.0115  -0.0000   0.0000  -0.0000  -0.0000   0.0000
1016 H_a :1s     0.0486   0.0000  -0.0000   0.0000   0.0000   0.0000  -0.0000
1024 H_a :2py    0.0251  -0.0047  -0.0000  -0.0000   0.0000  -0.0000  -0.0000
1036 H_b :1s    -0.0121  -0.0003   0.0000   0.0000   0.0000  -0.0000  -0.0000
1038 H_b :1s    -0.0604  -0.1344  -0.0000   0.0000  -0.0000  -0.0000   0.0000
1039 H_b :1s     0.0135   0.0437  -0.0000  -0.0000   0.0000   0.0000  -0.0000
1046 H_b :2px   -0.0102   0.0169   0.0000  -0.0000   0.0000  -0.0000  -0.0000
1047 H_b :2py   -0.0237  -0.0143  -0.0000   0.0000  -0.0000  -0.0000   0.0000
1061 H_c :1s    -0.0036  -0.0411  -0.0000   0.0000   0.0000  -0.0000   0.0000
1062 H_c :1s    -0.0479  -0.0085   0.0000  -0.0000  -0.0000  -0.0000   0.0000
1069 H_c :2px    0.0083  -0.0171  -0.0000   0.0000  -0.0000  -0.0000   0.0000
1084 H_d :1s     0.0537   0.0611  -0.0000  -0.0000   0.0000   0.0000  -0.0000
1085 H_d :1s    -0.0109  -0.0328   0.0000   0.0000  -0.0000  -0.0000   0.0000
1092 H_d :2px   -0.0160  -0.0103  -0.0000   0.0000  -0.0000  -0.0000   0.0000
1107 H_e :1s     0.0452   0.0589   0.0000  -0.0000  -0.0000  -0.0000  -0.0000
1108 H_e :1s     0.0411   0.0014  -0.0000   0.0000  -0.0000   0.0000  -0.0000
1115 H_e :2px    0.0151   0.0033  -0.0000  -0.0000  -0.0000   0.0000  -0.0000
1116 H_e :2py    0.0019  -0.0114  -0.0000   0.0000   0.0000   0.0000   0.0000
1130 H_f :1s    -0.0664  -0.0183   0.0000  -0.0000  -0.0000  -0.0000  -0.0000
1131 H_f :1s     0.0189   0.0266  -0.0000  -0.0000   0.0000   0.0000  -0.0000
1139 H_f :2py   -0.0146  -0.0031   0.0000  -0.0000  -0.0000  -0.0000   0.0000
1153 H_g :1s    -0.0230  -0.0578  -0.0000  -0.0000   0.0000   0.0000  -0.0000
1154 H_g :1s    -0.0355   0.0079   0.0000  -0.0000   0.0000  -0.0000   0.0000
1161 H_g :2px   -0.0016  -0.0127  -0.0000   0.0000   0.0000   0.0000   0.0000
1176 H_h :1s     0.0391   0.0068   0.0000  -0.0000   0.0000  -0.0000  -0.0000
1177 H_h :1s    -0.0145  -0.0272   0.0000   0.0000  -0.0000  -0.0000   0.0000
1199 H_i :1s     0.0049   0.0330   0.0000  -0.0000   0.0000   0.0000  -0.0000
1200 H_i :1s     0.0347  -0.0060  -0.0000   0.0000  -0.0000   0.0000  -0.0000
1222 H_j :1s    -0.0257   0.0025   0.0000  -0.0000   0.0000  -0.0000  -0.0000
1223 H_j :1s     0.0049   0.0223  -0.0000  -0.0000   0.0000   0.0000  -0.0000
1245 H_k :1s     0.0132  -0.0033   0.0000  -0.0000   0.0000   0.0000  -0.0000
1246 H_k :1s    -0.0230  -0.0005   0.0000  -0.0000   0.0000  -0.0000  -0.0000
1292 H_m :1s     0.0119   0.0016  -0.0000  -0.0000   0.0000   0.0000  -0.0000
1314 H_n :1s    -0.0098   0.0102   0.0000  -0.0000   0.0000  -0.0000  -0.0000
1381 H_q :1s    -0.0696  -0.1494  -0.0000  -0.0000   0.0000   0.0000  -0.0000
1382 H_q :1s     0.0025   0.0239   0.0000   0.0000  -0.0000  -0.0000   0.0000
1383 H_q :1s     0.0094  -0.1025   0.0000   0.0000  -0.0000  -0.0000   0.0000
1384 H_q :1s    -0.0270   0.0053   0.0000   0.0000  -0.0000  -0.0000   0.0000
1391 H_q :2px    0.0230  -0.0231   0.0000  -0.0000  -0.0000  -0.0000  -0.0000
1392 H_q :2py    0.0192   0.0243  -0.0000   0.0000  -0.0000   0.0000   0.0000
[...]
1296 H_m :2px    0.0237   0.0007   0.0206  -0.0017   0.0150   0.0145
1297 H_m :2py   -0.0328  -0.0232  -0.0248  -0.0206  -0.0261  -0.0347
1299 H_m :2px   -0.0656   0.1612   0.1620   0.1356  -0.0315   0.1284
1300 H_m :2py   -0.3447   0.0412  -0.2079   0.0441  -0.2158  -0.1967
1312 H_n :1s    -0.0087   0.0117   0.0059   0.0194   0.0087   0.0124
1313 H_n :1s     0.1619  -0.1034  -0.0428  -0.1323   0.0087  -0.0416
1314 H_n :1s     2.5303  -0.9253  -0.5575  -1.1858   0.5310  -0.0485
1315 H_n :1s    -0.3644  -0.8280   2.5630  -3.4254  -0.0372  -4.8872
1319 H_n :2px   -0.0341   0.0093   0.0074   0.0083  -0.0095  -0.0161
1320 H_n :2py    0.0219  -0.0080  -0.0032  -0.0069   0.0121   0.0036
1322 H_n :2px   -0.2147   0.1203   0.1649   0.1389   0.0635   0.0282
1323 H_n :2py    0.4770  -0.0286   0.0008  -0.0656   0.2416   0.1321
1330 H_n :3d2-   0.0059  -0.0104  -0.0018  -0.0189  -0.0091  -0.0187
1332 H_n :3d0    0.0020  -0.0095  -0.0026  -0.0131  -0.0035  -0.0134
1334 H_n :3d2+   0.0096  -0.0076  -0.0107  -0.0097  -0.0083  -0.0011
1335 H_o :1s    -0.0007   0.0064   0.0095   0.0067   0.0152  -0.0004
1336 H_o :1s    -0.0784  -0.0421  -0.0248  -0.0589  -0.1098  -0.0645
1337 H_o :1s    -0.1336  -0.4532  -0.2331  -0.4711  -0.6566  -0.2299
1338 H_o :1s    -0.0644   0.4570  -1.6150   0.8506  -2.1769   1.5205
1342 H_o :2px   -0.0043   0.0082   0.0059   0.0101   0.0040   0.0122
1343 H_o :2py    0.0188   0.0241   0.0059   0.0266   0.0282   0.0238
1345 H_o :2px   -0.0291   0.0749  -0.0012   0.1130  -0.0044   0.1231
1346 H_o :2py   -0.0091   0.1816   0.0671   0.1746   0.1452   0.0889
1353 H_o :3d2-  -0.0029  -0.0073  -0.0066  -0.0094  -0.0130  -0.0099
1357 H_o :3d2+   0.0033   0.0176   0.0117   0.0158   0.0201   0.0108
1358 H_p :1s     0.0005  -0.0040  -0.0079  -0.0038  -0.0115  -0.0007
1359 H_p :1s    -0.0855   0.0157   0.1124   0.0080   0.1105  -0.0682
1360 H_p :1s    -0.1420  -0.0584   0.7351  -0.1901   0.8164  -0.4622
1361 H_p :1s    -0.0830   1.5122   1.0520   1.7775   2.0778   1.2787
1365 H_p :2px    0.0106   0.0043  -0.0195   0.0065  -0.0241   0.0165
1366 H_p :2py    0.0031  -0.0026  -0.0153   0.0019  -0.0174   0.0092
1368 H_p :2px   -0.0224   0.0288  -0.1112   0.0488  -0.1570   0.0581
1369 H_p :2py   -0.0294   0.0616  -0.1004   0.1092  -0.1043   0.1074
1376 H_p :3d2-   0.0052   0.0022   0.0134  -0.0016   0.0218  -0.0049
1381 H_q :1s    -0.0162  -0.0088   0.0043   0.0187  -0.0039  -0.0135
1382 H_q :1s     0.1608  -0.1134   0.1013   0.0059  -0.1536  -0.0884
1383 H_q :1s     2.0581  -1.4484   1.3345   0.0223  -1.7700  -0.8384
1384 H_q :1s     0.1115   1.9683  -2.5484  -2.4536   4.7846   3.1662
1388 H_q :2px    0.0268  -0.0410   0.0216   0.0223  -0.0333  -0.0472
1389 H_q :2py   -0.0075   0.0190  -0.0219  -0.0124   0.0352   0.0179
1391 H_q :2px    0.2520  -0.1858   0.2231   0.0216  -0.3007  -0.1174
1392 H_q :2py   -0.3353   0.2857  -0.1351  -0.0495   0.1948   0.2306
1399 H_q :3d2-   0.0134   0.0077  -0.0042  -0.0163   0.0085   0.0161
1401 H_q :3d0    0.0065   0.0039   0.0037  -0.0095  -0.0028   0.0120
1404 H_r :1s    -0.0180  -0.0152   0.0100   0.0221  -0.0087  -0.0124
1405 H_r :1s     0.0885  -0.0310  -0.1249   0.0033   0.1276  -0.1129
1406 H_r :1s     0.0360  -0.2773  -1.4413   0.5846   1.4013  -1.1572
1407 H_r :1s    -0.3271   1.2172   1.7136  -1.8857  -2.0668   4.1472
1411 H_r :2px   -0.0242   0.0244   0.0157  -0.0160  -0.0135   0.0431
1412 H_r :2py    0.0124  -0.0231  -0.0179   0.0165   0.0219  -0.0328
1414 H_r :2px    0.0669   0.0712   0.2164  -0.1269  -0.2056   0.1691
1415 H_r :2py    0.1106  -0.0682  -0.1507   0.0378   0.1661  -0.1547
1422 H_r :3d2-   0.0075   0.0197  -0.0073  -0.0241   0.0070   0.0275
1427 H_s :1s    -0.0285  -0.0205   0.0029   0.0203   0.0066  -0.0024
1428 H_s :1s     0.1318  -0.0279  -0.1229   0.0097   0.0875  -0.0485
1429 H_s :1s     0.6993  -0.7659  -1.4209   0.8271   1.1298  -0.8158
1430 H_s :1s    -0.2939   0.4430   2.1563  -0.7713  -2.1266  -0.1597
1434 H_s :2px   -0.0117   0.0225   0.0170  -0.0123  -0.0194   0.0045
1435 H_s :2py    0.0051  -0.0174  -0.0215   0.0095   0.0199  -0.0028
1437 H_s :2px   -0.0477   0.1479   0.2378  -0.1180  -0.0889   0.1218
1438 H_s :2py    0.1165  -0.1185  -0.0892   0.0873   0.1836  -0.0648
1445 H_s :3d2-   0.0214   0.0122  -0.0026  -0.0096  -0.0037  -0.0091
1450 H_t :1s    -0.0217  -0.0199   0.0002   0.0259   0.0024  -0.0129
1451 H_t :1s     0.0201  -0.0534   0.1328  -0.0511  -0.0619   0.0885
1452 H_t :1s    -1.3274  -0.7090   1.5149   0.6351  -0.5748   0.5264
1453 H_t :1s     1.0917   1.1745  -2.2092  -0.0400  -0.0483  -1.6148
1457 H_t :2px    0.0000  -0.0273   0.0173   0.0015   0.0026   0.0105
1458 H_t :2py    0.0025   0.0277  -0.0206  -0.0102   0.0021   0.0012
1460 H_t :2px   -0.2103  -0.0711   0.1705   0.1266  -0.0543  -0.0156
1461 H_t :2py    0.0957   0.1713  -0.1826  -0.0400   0.0229  -0.1341
1468 H_t :3d2-   0.0108   0.0157   0.0051  -0.0171  -0.0129   0.0126
1470 H_t :3d0   -0.0021   0.0084   0.0090  -0.0070  -0.0103   0.0076

  Total CPU  time used in SIRIUS : 41 minutes 59 seconds
  Total wall time used in SIRIUS : 42 minutes 27 seconds

 
     Date and time (Linux)  : Wed May 14 14:27:06 2025
     Host name              : xm045                                   

 NOTE:    1 warnings have been issued.
 Check output, result, and error files for "WARNING".


                     .---------------------------------------.
                     | End of Wave Function Section (SIRIUS) |
                     `---------------------------------------'



        *****************************************************************
        ******** Output from **PROPE input processing for ABACUS ********
        *****************************************************************



 The following molecular properties will be calculated in this run:
 ------------------------------------------------------------------

 Default print level:        0

      Electronic excitation energies 
      Direct calculation - no two-electron integrals written or read.
      Two-electron integrals will be calculated in parallel
      Natural orbital connection is used
      for perturbation dependent basis sets.


 Changes of defaults for .EXCITA:
 --------------------------------

 Number of excitation energies:    4
 Print level          :    0
 Integral print level :    0
 Convergence threshold: 1.00E-04
 Maximum iterations   :   60

 Center of mass dipole origin  :   -0.208621   -0.202585    0.000000

 Center of mass gauge origin   :   -0.208621   -0.202585    0.000000


                 .------------------------------------------------.
                 | Starting in Static Property Section (ABACUS) - |
                 `------------------------------------------------'


 
     Date and time (Linux)  : Wed May 14 14:27:06 2025
     Host name              : xm045                                   


                  **********************************************
                  *** ABACUS - Excitation energies (.EXCITA) ***
                  **********************************************

  Time used in EXCITA     is       1 hour   4 minutes 29 seconds


   ***************************************************************************
   ************************ FINAL RESULTS from ABACUS ************************
   ***************************************************************************


 
     Date and time (Linux)  : Wed May 14 15:42:07 2025
     Host name              : xm045                                   


                             Molecular geometry (au)
                             -----------------------

 C_a       -7.0278007483           -4.8570175488            0.0000000000
 C_b       -4.5000917489           -4.2641821190            0.0000000000
 C_c       -3.5293810091           -1.7238346296            0.0000000000
 C_d       -0.9934252398           -1.1528255297            0.0000000000
 C_e        0.0000000000            1.3764576097            0.0000000000
 C_f        2.5415493594            1.9280818995            0.0000000000
 C_g        3.5575379291            4.4478823989            0.0000000000
 C_h        6.1037322385            4.9774913688            0.0000000000
 C_i        7.1480799282            7.4867226282            0.0000000000
 C_j        9.6989872076            7.9857142680            0.0000000000
 C_k       10.7864792474           10.4794346474            0.0000000000
 C_l       13.3436301767           10.9249281373            0.0000000000
 C_m       14.5087351564           13.3862378367            0.0000000000
 C_n       17.0788401658           13.6941857166            0.0000000000
 C_o      -13.8284734266          -11.2736714272            0.0000000000
 C_p      -11.3550675972          -10.6258865374            0.0000000000
 C_q      -10.4818289374           -8.0362039680            0.0000000000
 C_r       -7.9681076880           -7.4137716482            0.0000000000
 N_a       18.3466819855           15.9480148161            0.0000000000
 N_b      -14.6084484364          -13.9170902466            0.0000000000
 O_a      -16.9168301558          -14.2855566065            0.0000000000
 O_b      -12.9711387068          -15.5748940662            0.0000000000
 H_a       -8.4192854679           -3.3142186892            0.0000000000
 H_b       -3.1181595992           -5.8175180986            0.0000000000
 H_c       -4.9032799388           -0.1647255400            0.0000000000
 H_d        0.3735497199           -2.7195502193            0.0000000000
 H_e       -1.3602494297            2.9477988993            0.0000000000
 H_f        3.8951167190            0.3495105199            0.0000000000
 H_g        2.2110853895            6.0311799785            0.0000000000
 H_h        7.4417244682            3.3852893992            0.0000000000
 H_i        5.8191961686            9.0847317378            0.0000000000
 H_j       11.0141534473            6.3738496884            0.0000000000
 H_k        9.4858487777           12.0999560670            0.0000000000
 H_l       14.6154668864            9.2778069377            0.0000000000
 H_m       13.2817076367           15.0607695063            0.0000000000
 H_n       18.3042935355           12.0215267570            0.0000000000
 H_o       17.3974177457           17.6056239957            0.0000000000
 H_p       20.2509268750           16.0045346361            0.0000000000
 H_q      -15.4279791962           -9.9709320276            0.0000000000
 H_r       -9.9589190376          -12.1576172770            0.0000000000
 H_s       -6.5672423684           -8.9494802578            0.0000000000
 H_t      -11.8996148571           -6.5198744984            0.0000000000





                        Molecular wave function and energy
                        ----------------------------------

     Spatial symmetry   1 ( A   )
     Spin multiplicity  1
     2 * M_S            0
     State number       1
     Total charge       0

     Total energy       -951.9721338428 au (Hartrees)
                        -25904.47949118 eV
                          -2499402.4521 kJ/mol
                           -597371.5230 kcal/mol


                   Scalar Breit-Pauli relativistic corrections
                   -------------------------------------------

     Darwin correction:                          1.7252920016 au
     Mass-velocity correction:                  -2.1492657459 au

     Total relativistic correction:             -0.4239737443 au ( 0.0445%)
     Non-relativistic + relativistic energy:  -952.3961075871 au



      (Note that these corrections are NOT included in the results below.)


                                  Dipole moment
                                  -------------

                 au               Debye          C m (/(10**-30)
              6.301583          16.017026          53.427047


                             Dipole moment components
                             ------------------------

                 au               Debye          C m (/(10**-30)

      x      4.55715463        11.58313095        38.63716596
      y      4.35227437        11.06237731        36.90011878
      z     -0.00000000        -0.00000000        -0.00000000


   Units:   1 a.u. =   2.54175 Debye 
            1 a.u. =   8.47835 (10**-30) C m (SI)




@               Singlet electronic excitation energies
                --------------------------------------

               ========================================
                 Sym.   Mode   Frequency    Frequency
                ex. st.  No.      (au)         (eV)
               ----------------------------------------
                   1      1     0.104793     2.851562
                   1      2     0.159279     4.334208
                   1      3     0.162901     4.432766
                   1      4     0.166413     4.528317
               ========================================

  Max    interatomic separation is   25.3726 Angstrom (   47.9472 Bohr)
  between atoms   38 and   21, "H_p   " and "O_a   ".

  Min HX interatomic separation is    1.0081 Angstrom (    1.9051 Bohr)

  Min YX interatomic separation is    1.2330 Angstrom (    2.3300 Bohr)


  Bond distances (Angstrom):
  --------------------------

                  atom 1     atom 2       distance
                  ------     ------       --------
  bond distance:  C_b        C_a          1.373902
  bond distance:  C_c        C_b          1.439094
  bond distance:  C_d        C_c          1.375568
  bond distance:  C_e        C_d          1.437977
  bond distance:  C_f        C_e          1.376244
  bond distance:  C_g        C_f          1.437730
  bond distance:  C_h        C_g          1.376226
  bond distance:  C_i        C_h          1.438243
  bond distance:  C_j        C_i          1.375466
  bond distance:  C_k        C_j          1.439642
  bond distance:  C_l        C_k          1.373568
  bond distance:  C_m        C_l          1.441026
  bond distance:  C_n        C_m          1.369769
  bond distance:  C_p        C_o          1.353014
  bond distance:  C_q        C_p          1.446213
  bond distance:  C_r        C_a          1.441575
  bond distance:  C_r        C_q          1.370377
  bond distance:  N_a        C_n          1.368429
  bond distance:  N_b        C_o          1.458459
  bond distance:  O_a        N_b          1.237007
  bond distance:  O_b        N_b          1.233005
  bond distance:  H_a        C_a          1.099423
  bond distance:  H_b        C_b          1.100204
  bond distance:  H_c        C_c          1.099673
  bond distance:  H_d        C_d          1.100287
  bond distance:  H_e        C_e          1.099797
  bond distance:  H_f        C_f          1.100387
  bond distance:  H_g        C_g          1.099844
  bond distance:  H_h        C_h          1.100553
  bond distance:  H_i        C_i          1.099819
  bond distance:  H_j        C_j          1.100863
  bond distance:  H_k        C_k          1.099585
  bond distance:  H_l        C_l          1.101220
  bond distance:  H_m        C_m          1.098556
  bond distance:  H_n        C_n          1.097264
  bond distance:  H_o        N_a          1.010821
  bond distance:  H_p        N_a          1.008127
  bond distance:  H_q        C_o          1.091639
  bond distance:  H_r        C_p          1.096742
  bond distance:  H_s        C_r          1.099979
  bond distance:  H_t        C_q          1.098520


  Bond angles (degrees):
  ----------------------

                  atom 1     atom 2     atom 3         angle
                  ------     ------     ------         -----
  bond angle:     C_b        C_a        C_r          123.391
  bond angle:     C_b        C_a        H_a          118.849
  bond angle:     C_r        C_a        H_a          117.760
  bond angle:     C_a        C_b        C_c          124.112
  bond angle:     C_a        C_b        H_b          118.459
  bond angle:     C_c        C_b        H_b          117.429
  bond angle:     C_b        C_c        C_d          123.602
  bond angle:     C_b        C_c        H_c          117.701
  bond angle:     C_d        C_c        H_c          118.697
  bond angle:     C_c        C_d        C_e          124.133
  bond angle:     C_c        C_d        H_d          118.415
  bond angle:     C_e        C_d        H_d          117.452
  bond angle:     C_d        C_e        C_f          123.689
  bond angle:     C_d        C_e        H_e          117.675
  bond angle:     C_f        C_e        H_e          118.636
  bond angle:     C_e        C_f        C_g          124.205
  bond angle:     C_e        C_f        H_f          118.366
  bond angle:     C_g        C_f        H_f          117.429
  bond angle:     C_f        C_g        C_h          123.709
  bond angle:     C_f        C_g        H_g          117.662
  bond angle:     C_h        C_g        H_g          118.628
  bond angle:     C_g        C_h        C_i          124.347
  bond angle:     C_g        C_h        H_h          118.292
  bond angle:     C_i        C_h        H_h          117.361
  bond angle:     C_h        C_i        C_j          123.665
  bond angle:     C_h        C_i        H_i          117.656
  bond angle:     C_j        C_i        H_i          118.678
  bond angle:     C_i        C_j        C_k          124.630
  bond angle:     C_i        C_j        H_j          118.144
  bond angle:     C_k        C_j        H_j          117.226
  bond angle:     C_j        C_k        C_l          123.444
  bond angle:     C_j        C_k        H_k          117.688
  bond angle:     C_l        C_k        H_k          118.868
  bond angle:     C_k        C_l        C_m          125.214
  bond angle:     C_k        C_l        H_l          117.791
  bond angle:     C_m        C_l        H_l          116.995
  bond angle:     C_l        C_m        C_n          122.164
  bond angle:     C_l        C_m        H_m          118.436
  bond angle:     C_n        C_m        H_m          119.400
  bond angle:     C_m        C_n        N_a          126.192
  bond angle:     C_m        C_n        H_n          119.395
  bond angle:     N_a        C_n        H_n          114.413
  bond angle:     C_p        C_o        N_b          121.116
  bond angle:     C_p        C_o        H_q          126.162
  bond angle:     N_b        C_o        H_q          112.722
  bond angle:     C_o        C_p        C_q          123.310
  bond angle:     C_o        C_p        H_r          117.673
  bond angle:     C_q        C_p        H_r          119.017
  bond angle:     C_p        C_q        C_r          122.542
  bond angle:     C_p        C_q        H_t          118.290
  bond angle:     C_r        C_q        H_t          119.169
  bond angle:     C_a        C_r        C_q          124.100
  bond angle:     C_a        C_r        H_s          117.437
  bond angle:     C_q        C_r        H_s          118.463
  bond angle:     C_n        N_a        H_o          120.843
  bond angle:     C_n        N_a        H_p          121.059
  bond angle:     H_o        N_a        H_p          118.098
  bond angle:     C_o        N_b        O_a          115.508
  bond angle:     C_o        N_b        O_b          118.917
  bond angle:     O_a        N_b        O_b          125.575




 CPU time statistics for ABACUS
 ------------------------------

 MAGINT     00:09:37      13 %
 EXCITA     01:04:29      87 %

 TOTAL      01:14:06     100 %


  Total CPU  time used in ABACUS:   1 hour  14 minutes  6 seconds
  Total wall time used in ABACUS:   1 hour  15 minutes  1 second 


                   .-------------------------------------------.
                   | End of Static Property Section (ABACUS) - |
                   `-------------------------------------------'

  Total CPU  time used in DALTON:   1 hour  56 minutes 19 seconds
  Total wall time used in DALTON:   1 hour  57 minutes 42 seconds

 
     Date and time (Linux)  : Wed May 14 15:42:07 2025
     Host name              : xm045                                   
