Dalton - An Electronic Structure Program

Molecular geometry (au)
----------------------------------------
  Center  Atomic   Coordinates (au)
O      0.000000   0.000000   0.000000
H      0.000000   1.432000   0.000000
H      0.000000  -1.432000   0.000000
