Dalton - An Electronic Structure Program
Molecule name: H2O
Basis set: aug-cc-pVDZ

Molecular geometry (au)
----------------------------------------
  Center  Atomic   Coordinates (au)
O      0.000000   0.000000   0.000000
H      0.000000   1.432000   0.000000
H      0.000000  -1.432000   0.000000

@ Final HF energy: -75.000000
