

     ************************************************************************
     *************** Dalton - An Electronic Structure Program ***************
     ************************************************************************

    This is output from DALTON release Dalton2020.0 (2020)
         ( Web site: http://daltonprogram.org )

   ----------------------------------------------------------------------------

    NOTE:
     
    Dalton is an experimental code for the evaluation of molecular
    properties using (MC)SCF, DFT, CI, and CC wave functions.
    The authors accept no responsibility for the performance of
    the code or for the correctness of the results.
     
    The code (in whole or part) is provided under a licence and
    is not to be reproduced for further distribution without
    the written permission of the authors or their representatives.
     
    See the home page "http://daltonprogram.org" for further information.
     
    If results obtained with this code are published,
    the appropriate citations would be both of:
     
       K. Aidas, C. Angeli, K. L. Bak, V. Bakken, R. Bast,
       L. Boman, O. Christiansen, R. Cimiraglia, S. Coriani,
       P. Dahle, E. K. Dalskov, U. Ekstroem,
       T. Enevoldsen, J. J. Eriksen, P. Ettenhuber, B. Fernandez,
       L. Ferrighi, H. Fliegl, L. Frediani, K. Hald, A. Halkier,
       C. Haettig, H. Heiberg, T. Helgaker, A. C. Hennum,
       H. Hettema, E. Hjertenaes, S. Hoest, I.-M. Hoeyvik,
       M. F. Iozzi, B. Jansik, H. J. Aa. Jensen, D. Jonsson,
       P. Joergensen, J. Kauczor, S. Kirpekar,
       T. Kjaergaard, W. Klopper, S. Knecht, R. Kobayashi, H. Koch,
       J. Kongsted, A. Krapp, K. Kristensen, A. Ligabue,
       O. B. Lutnaes, J. I. Melo, K. V. Mikkelsen, R. H. Myhre,
       C. Neiss, C. B. Nielsen, P. Norman, J. Olsen,
       J. M. H. Olsen, A. Osted, M. J. Packer, F. Pawlowski,
       T. B. Pedersen, P. F. Provasi, S. Reine, Z. Rinkevicius,
       T. A. Ruden, K. Ruud, V. Rybkin, P. Salek, C. C. M. Samson,
       A. Sanchez de Meras, T. Saue, S. P. A. Sauer,
       B. Schimmelpfennig, K. Sneskov, A. H. Steindal,
       K. O. Sylvester-Hvid, P. R. Taylor, A. M. Teale,
       E. I. Tellgren, D. P. Tew, A. J. Thorvaldsen, L. Thoegersen,
       O. Vahtras, M. A. Watson, D. J. D. Wilson, M. Ziolkowski
       and H. Agren,
       "The Dalton quantum chemistry program system",
       WIREs Comput. Mol. Sci. 2014, 4:269–284 (doi: 10.1002/wcms.1172)
     
    and
     
       Dalton, a molecular electronic structure program,
       Release Dalton2020.0 (2020), see http://daltonprogram.org
   ----------------------------------------------------------------------------

    Authors in alphabetical order (Major contribution(s) in parenthesis):

  Kestutis Aidas,           Vilnius University,           Lithuania   (QM/MM)
  Celestino Angeli,         University of Ferrara,        Italy       (NEVPT2)
  Keld L. Bak,              UNI-C,                        Denmark     (AOSOPPA, non-adiabatic coupling, magnetic properties)
  Vebjoern Bakken,          University of Oslo,           Norway      (DALTON; geometry optimizer, symmetry detection)
  Radovan Bast,             UiT The Arctic U. of Norway,  Norway      (DALTON installation and execution frameworks)
  Pablo Baudin,             University of Valencia,       Spain       (Cholesky excitation energies)
  Linus Boman,              NTNU,                         Norway      (Cholesky decomposition and subsystems)
  Bruno N. Cabral Tenorio,  Technical Univ. of Denmark,   Denmark     (Lanczos-based CC methods)
  Ove Christiansen,         Aarhus University,            Denmark     (CC module)
  Renzo Cimiraglia,         University of Ferrara,        Italy       (NEVPT2)
  Sonia Coriani,            Technical Univ. of Denmark,   Denmark     (CC and RESPONS modules)
  Janusz Cukras,            University of Warsaw,         Poland      (MChD in RESPONS)
  Paal Dahle,               University of Oslo,           Norway      (Parallelization)
  Erik K. Dalskov,          UNI-C,                        Denmark     (SOPPA)
  Thomas Enevoldsen,        Univ. of Southern Denmark,    Denmark     (SOPPA)
  Janus J. Eriksen,         Aarhus University,            Denmark     (Polarizable embedding, TDA)
  Rasmus Faber,             Technical Univ. of Denmark,   Denmark     (Vib.avg. NMR w. SOPPA, parallel AO-SOPPA, CVS-CC and EOMCC)
  Tobias Fahleson,          KTH Stockholm,                Sweden      (Damped cubic response)
  Berta Fernandez,          U. of Santiago de Compostela, Spain       (Doublet spin, ESR in RESPONS)
  Lara Ferrighi,            Aarhus University,            Denmark     (PCM Cubic response)
  Heike Fliegl,             University of Oslo,           Norway      (CCSD(R12))
  Luca Frediani,            UiT The Arctic U. of Norway,  Norway      (PCM)
  Emmanuel Fromager,        Univ. Strasbourg,             France      (MC-srDFT)
  Bin Gao,                  UiT The Arctic U. of Norway,  Norway      (Gen1Int library)
  Andre S. P. Gomes,        CNRS/Universite de Lille,     France      (Frozen density embedding)
  Christof Haettig,         Ruhr-University Bochum,       Germany     (CC module)
  Kasper Hald,              Aarhus University,            Denmark     (CC module)
  Asger Halkier,            Aarhus University,            Denmark     (CC module)
  Frederik Beyer Hansen,    University of Copenhagen,     Denmark     (Parallel AO-SOPPA)
  Erik D. Hedegaard,        Univ. of Southern Denmark,    Denmark     (Polarizable embedding, QM/MM, and MC-srDFT)
  Hanne Heiberg,            University of Oslo,           Norway      (Geometry analysis, selected one-electron integrals)
  Trygve Helgaker,          University of Oslo,           Norway      (DALTON; ABACUS, ERI, DFT modules, London, and much more)
  Alf Christian Hennum,     University of Oslo,           Norway      (Parity violation)
  Hinne Hettema,            University of Auckland,       New Zealand (Quadratic response in RESPONS; SIRIUS supersymmetry)
  Eirik Hjertenaes,         NTNU,                         Norway      (Cholesky decomposition)
  Pi A. B. Haase,           University of Copenhagen,     Denmark     (Triplet AO-SOPPA)
  Maria Francesca Iozzi,    University of Oslo,           Norway      (RPA)
  Christoph Jacob           TU Braunschweig               Germany     (Frozen density embedding)
  Brano Jansik              Technical Univ. of Ostrava    Czech Rep.  (DFT cubic response)
  Hans Joergen Aa. Jensen,  Univ. of Southern Denmark,    Denmark     (DALTON; SIRIUS, RESPONS, ABACUS, MC-srDFT, and much more)
  Dan Jonsson,              UiT The Arctic U. of Norway,  Norway      (Cubic response in RESPONS module)
  Poul Joergensen,          Aarhus University,            Denmark     (RESPONS, ABACUS, and CC modules)
  Maciej Kaminski,          University of Warsaw,         Poland      (CPPh in RESPONS)
  Joanna Kauczor,           Linkoeping University,        Sweden      (Complex polarization propagator (CPP) module)
  Sheela Kirpekar,          Univ. of Southern Denmark,    Denmark     (Mass-velocity & Darwin integrals)
  Erik Kjellgren,           Univ. of Southern Denmark,    Denmark     (MC-srDFT)
  Wim Klopper,              KIT Karlsruhe,                Germany     (R12 code in CC, SIRIUS, and ABACUS modules)
  Stefan Knecht,            ETH Zurich,                   Switzerland (Parallel CI and MCSCF, MC-srDFT)
  Rika Kobayashi,           Australian National Univ.,    Australia   (DIIS in CC, London in MCSCF)
  Henrik Koch,              NTNU,                         Norway      (CC module, Cholesky decomposition)
  Jacob Kongsted,           Univ. of Southern Denmark,    Denmark     (Polarizable embedding, polarizable density embedding, QM/MM)
  Andrea Ligabue,           University of Modena,         Italy       (CTOCD, AOSOPPA)
  Nanna H. List             Univ. of Southern Denmark,    Denmark     (Polarizable embedding)
  Ola B. Lutnaes,           University of Oslo,           Norway      (DFT Hessian)
  Juan I. Melo,             University of Buenos Aires,   Argentina   (LRESC, Relativistic Effects on NMR Shieldings)
  Kurt V. Mikkelsen,        University of Copenhagen,     Denmark     (MC-SCRF and QM/MM)
  Rolf H. Myhre,            NTNU,                         Norway      (Subsystems and CC3)
  Christian Neiss,          Univ. Erlangen-Nuernberg,     Germany     (CCSD(R12))
  Christian B. Nielsen,     University of Copenhagen,     Denmark     (QM/MM)
  Patrick Norman,           KTH Stockholm,                Sweden      (Cubic response and complex frequency response in RESPONS)
  Jeppe Olsen,              Aarhus University,            Denmark     (SIRIUS CI/density modules)
  Jogvan Magnus H. Olsen,   Aarhus University,            Denmark     (Polarizable embedding and polarizable density embedding)
  Anders Osted,             Copenhagen University,        Denmark     (QM/MM)
  Martin J. Packer,         University of Sheffield,      UK          (SOPPA)
  Filip Pawlowski,          Kazimierz Wielki University,  Poland      (CC3)
  Morten N. Pedersen,       Univ. of Southern Denmark,    Denmark     (Polarizable embedding)
  Thomas B. Pedersen,       University of Oslo,           Norway      (Cholesky decomposition)
  Patricio F. Provasi,      University of Northeastern,   Argentina   (Analysis of coupling constants in localized orbitals)
  Peter Reinholdt,          Univ. of Southern Denmark,    Denmark     (Polarizable embedding and polarizable density embedding)
  Zilvinas Rinkevicius,     KTH Stockholm,                Sweden      (open-shell DFT, ESR)
  Elias Rudberg,            KTH Stockholm,                Sweden      (DFT grid and basis info)
  Torgeir A. Ruden,         University of Oslo,           Norway      (Numerical derivatives in ABACUS)
  Kenneth Ruud,             UiT The Arctic U. of Norway,  Norway      (DALTON; ABACUS magnetic properties and much more)
  Pawel Salek,              KTH Stockholm,                Sweden      (DALTON; DFT code)
  Claire C. M. Samson       University of Karlsruhe       Germany     (Boys localization, r12 integrals in ERI)
  Alfredo Sanchez de Meras, University of Valencia,       Spain       (CC module, Cholesky decomposition)
  Trond Saue,               Paul Sabatier University,     France      (direct Fock matrix construction)
  Stephan P. A. Sauer,      University of Copenhagen,     Denmark     (SOPPA(CCSD), SOPPA prop., AOSOPPA, vibrational g-factors)
  Bernd Schimmelpfennig,    Forschungszentrum Karlsruhe,  Germany     (AMFI module)
  Anna K. Schnack-Petersen, University of Copenhagen,     Denmark     (RPA(D) and HRPA(D) properties in AOSOPPA)
  Kristian Sneskov,         Aarhus University,            Denmark     (Polarizable embedding, QM/MM)
  Arnfinn H. Steindal,      UiT The Arctic U. of Norway,  Norway      (parallel QM/MM, polarizable embedding)
  Casper Steinmann,         Aalborg University,           Denmark     (QFIT, polarizable embedding)
  K. O. Sylvester-Hvid,     University of Copenhagen,     Denmark     (MC-SCRF)
  Peter R. Taylor,          VLSCI/Univ. of Melbourne,     Australia   (Symmetry handling ABACUS, integral transformation)
  Andrew M. Teale,          University of Nottingham,     England     (DFT-AC, DFT-D)
  David P. Tew,             University of Bristol,        England     (CCSD(R12))
  Julien Toulouse,          Sorbonne Univ.,               France      (MC-srDFT)
  Olav Vahtras,             KTH Stockholm,                Sweden      (Triplet response, spin-orbit, ESR, TDDFT, open-shell DFT)
  Lucas Visscher,           Vrije Universiteit Amsterdam, Netherlands (Frozen density embedding)
  David J. Wilson,          La Trobe University,          Australia   (DFT Hessian and DFT magnetizabilities)
  Hans Agren,               KTH Stockholm,                Sweden      (SIRIUS module, RESPONS, MC-SCRF solvation)
 --------------------------------------------------------------------------------

     Date and time (Linux)  : Wed Nov 26 19:44:42 2025
     Host name              : xm045                                   

 * Work memory size             :  1310720000 =  9.766 gigabytes.

 * Directories for basis set searches:
   1) /gpfs/projects/rjh/adrian/summer2025/beta_projects/raw_data/raman2/H2O/dalton
   2) /gpfs/projects/rjh/adrian/dalton/build/basis


Compilation information
-----------------------

 Who compiled             | ahurtado
 Host                     | milan2
 System                   | Linux-5.14.0-427.42.1.el9_4.x86_64
 CMake generator          | Unix Makefiles
 Processor                | x86_64
 64-bit integers          | OFF
 MPI                      | ON
 Fortran compiler         | /gpfs/software/openmpi/milan/gcc13.2/4.1.6/bin/mpi
                          | f90
 Fortran compiler version | GNU Fortran (GCC) 13.2.0
 C compiler               | /gpfs/software/openmpi/milan/gcc13.2/4.1.6/bin/mpi
                          | cc
 C compiler version       | gcc (GCC) 13.2.0
 C++ compiler             | /gpfs/software/openmpi/milan/gcc13.2/4.1.6/bin/mpi
                          | cxx
 C++ compiler version     | unknown
 BLAS                     | /gpfs/software/intel/oneAPI/2024_2/mkl/2024.2/lib/
                          | intel64/libmkl_gf_lp64.so;/gpfs/software/intel/one
                          | API/2024_2/mkl/2024.2/lib/intel64/libmkl_sequentia
                          | l.so;/gpfs/software/intel/oneAPI/2024_2/mkl/2024.2
                          | /lib/intel64/libmkl_core.so;/usr/lib64/libpthread.
                          | a;/usr/lib64/libm.so
 LAPACK                   | /gpfs/software/intel/oneAPI/2024_2/mkl/2024.2/lib/
                          | intel64/libmkl_lapack95_lp64.a;/gpfs/software/inte
                          | l/oneAPI/2024_2/mkl/2024.2/lib/intel64/libmkl_gf_l
                          | p64.so
 Static linking           | OFF
 Last Git revision        | 66052b3af5ea7225e31178bf9a8b031913c72190
 Git branch               | (HEAD detached at Dalton2020.0)
 Configuration time       | 2025-04-10 16:02:31.569498

 * MPI parallel run using 96 processes.


   Content of the .dal input file
 ----------------------------------

**DALTON INPUT
.WALK
*WALK
.NUMERI
**WAVE FUNCTIONS
.HF
*SCF INPUT
.THRESH
1.0D-8
**START
.RAMAN
*ABALNR
.THRESH
1.0D-7
.FREQUE
6
0.0 0.02 0.04 0.06 0.08 0.1
**EACH STEP
.RAMAN
*ABALNR
.THRESH
1.0D-7
.FREQUE
6
0.0 0.02 0.04 0.06 0.08 0.1
**PROPERTIES
.RAMAN
.VIBANA
*RESPONSE
.THRESH
1.0D-6
*ABALNR
.THRESH
1.0D-7
.FREQUE
6
0.0 0.02 0.04 0.06 0.08 0.1
*VIBANA
.PRINT
100
**END OF DALTON INPUT


   Content of the .mol file
 ----------------------------

BASIS
d-aug-cc-pV6Z
optimized 6Z geometry
optimize_h2o_g2.out
Atomtype=2 Angstrom Charge=0 Nosymmmetry
Charge=8 Atoms=1
O_a     0.0000000000           -0.0000000129           -0.1135859196
Charge=1 Atoms=2
H_a     -0.0000000000            0.7521260304            0.4496425569
H_b      0.0000000000           -0.7521260665            0.4496425179


       *******************************************************************
       *********** Output from DALTON general input processing ***********
       *******************************************************************

 --------------------------------------------------------------------------------
   Overall default print level:    0
   Print level for DALTON.STAT:    1

    Parallel calculation using MPI
@   Geometry optimization
      Starting at iteration:    0
      Maximum number of steps:   20
    AO-direct calculation (in sections where implemented)
    "Old" integral transformation used (limited to max 255 basis functions)
 --------------------------------------------------------------------------------


                .-------------------------------------------------.
                | Commencing geometry optimization based on .WALK |
                `-------------------------------------------------'



     @@---------- Geometry walk iteration number:    0 ----------




   ****************************************************************************
   *************** Output of molecule and basis set information ***************
   ****************************************************************************


    The two title cards from your ".mol" input:
    ------------------------------------------------------------------------
 1: optimized 6Z geometry                                                   
 2: optimize_h2o_g2.out                                                     
    ------------------------------------------------------------------------

  Coordinates are entered in Angstrom and converted to atomic units.
          - Conversion factor : 1 bohr = 0.52917721 A

  Atomic type no.    1
  --------------------
  Nuclear charge:   8.00000
  Number of symmetry independent centers:    1
  Number of basis sets to read;    2
  Basis set file used for this atomic type with Z =   8 :
     "/gpfs/projects/rjh/adrian/dalton/build/basis/aug-cc-pV6Z"

  Atomic type no.    2
  --------------------
  Nuclear charge:   1.00000
  Number of symmetry independent centers:    2
  Number of basis sets to read;    2
  Basis set file used for this atomic type with Z =   1 :
     "/gpfs/projects/rjh/adrian/dalton/build/basis/aug-cc-pV6Z"


                         SYMGRP: Point group information
                         -------------------------------

@    Point group: C1 


                                 Isotopic Masses
                                 ---------------

                           O_a        15.994915
                           H_a         1.007825
                           H_b         1.007825

                       Total mass:    18.010565 amu
                       Natural abundance:  99.730 %

 Center-of-mass coordinates (a.u.):    0.000000   -0.000000   -0.095530
 Center-of-mass coordinates (Angs):    0.000000   -0.000000   -0.050552


  Atoms and basis sets
  --------------------

  Number of atom types :    2
  Total number of atoms:    3

  Basis set used is "d-aug-cc-pV6Z" from the basis set library.

  label    atoms   charge   prim   cont     basis
  ----------------------------------------------------------------------
  O_          1    8.0000   259   238      [18s12p7d6f5g4h3i|9s8p7d6f5g4h3i]                  
  H_          2    1.0000   167   163      [12s7p6d5f4g3h|8s7p6d5f4g3h]                       
  ----------------------------------------------------------------------
  total:      3   10.0000   593   564
  ----------------------------------------------------------------------
  Spherical harmonic basis used.

  Threshold for neglecting AO integrals:  1.00D-12


  Cartesian Coordinates (a.u.)
  ----------------------------

  Total number of coordinates:    9
  O_a     :     1  x   0.0000000000    2  y  -0.0000000244    3  z  -0.2146462797
  H_a     :     4  x  -0.0000000000    5  y   1.4213122089    6  z   0.8497012867
  H_b     :     7  x   0.0000000000    8  y  -1.4213122772    9  z   0.8497012130


   Interatomic separations (in Angstrom):
   --------------------------------------

            O_a         H_a         H_b   
            ------      ------      ------
 O_a   :    0.000000
 H_a   :    0.939638    0.000000
 H_b   :    0.939638    1.504252    0.000000


  Max    interatomic separation is    1.5043 Angstrom (    2.8426 Bohr)
  between atoms    3 and    2, "H_b   " and "H_a   ".

  Min HX interatomic separation is    0.9396 Angstrom (    1.7757 Bohr)


  Bond distances (Angstrom):
  --------------------------

                  atom 1     atom 2       distance
                  ------     ------       --------
  bond distance:  H_a        O_a          0.939638
  bond distance:  H_b        O_a          0.939638


  Bond angles (degrees):
  ----------------------

                  atom 1     atom 2     atom 3         angle
                  ------     ------     ------         -----
  bond angle:     H_a        O_a        H_b          106.345




 Principal moments of inertia (u*A**2) and principal axes
 --------------------------------------------------------

   IA       0.567857          0.000000    1.000000    0.000000
   IB       1.140240          0.000000   -0.000000    1.000000
   IC       1.708097          1.000000    0.000000    0.000000


 Rotational constants
 --------------------

@    The molecule is planar.

               A                   B                   C

         889976.0016         443221.4950         295872.5132 MHz
           29.686404           14.784278            9.869245 cm-1


@  Nuclear repulsion energy :    9.362527736322 Hartree


                     .---------------------------------------.
                     | Starting in Integral Section (HERMIT) |
                     `---------------------------------------'



 ***************************************************************************************
 ****************** Output from **INTEGRALS input processing (HERMIT) ******************
 ***************************************************************************************


 - Using defaults, no **INTEGRALS input found

 Default print level:        1

 Calculation of one-electron Hamiltonian integrals.

 Center of mass  (bohr):      0.000000000000     -0.000000025467     -0.095529966696
 Operator center (bohr):      0.000000000000      0.000000000000      0.000000000000
 Gauge origin    (bohr):      0.000000000000      0.000000000000      0.000000000000
 Dipole origin   (bohr):      0.000000000000      0.000000000000      0.000000000000


     ************************************************************************
     ************************** Output from HERINT **************************
     ************************************************************************



                      Nuclear contribution to dipole moments
                      --------------------------------------

                 au               Debye          C m (/(10**-30)

      x      0.00000000         0.00000000         0.00000000
      y     -0.00000026        -0.00000067        -0.00000223
      z     -0.01776774        -0.04516108        -0.15064116


  Time used in ONEDRV     is       0.38 seconds
  Time used in HUCKEL     is       0.15 seconds
  Time used in POPOVLP    is       0.16 seconds
  Time used in R2         is       0.11 seconds
  Time used in R4         is       0.14 seconds
  Time used in DIPLEN     is       0.20 seconds
  Time used in QUADRUP    is       0.42 seconds
  Time used in KINENE     is       0.12 seconds
  Time used in GABGEN     is      17.43 seconds
  Total CPU  time used in HERMIT:  19.20 seconds
  Total wall time used in HERMIT:  19.45 seconds


                        .----------------------------------.
                        | End of Integral Section (HERMIT) |
                        `----------------------------------'



                   .--------------------------------------------.
                   | Starting in Wave Function Section (SIRIUS) |
                   `--------------------------------------------'



@ Primary orbitals are deleted during canonical orthonormalization
@   because of detected numerical linear dependence or too large coefficients.
@ Eigenvalue threshold for num. lin. dep. =  1.00D-06

@   2 MO components are deleted in symmetry    1
 Overlap eigenvalues of the deleted orbitals:
  2.79D-07  1.79D-07

 Max MO coeff. of last deleted MO & limit:  1.08D+03  1.00D+03

WARNING: Orbitals have been deleted because of numerical
   linear dependence although not requested in input.

 *** Output from Huckel module :

     Using EWMO model:          T
     Using EHT  model:          F
     Number of Huckel orbitals each symmetry:    7

 EWMO - Energy Weighted Maximum Overlap - is a Huckel type method,
        which normally is better than Extended Huckel Theory.
 Reference: Linderberg and Ohrn, Propagators in Quantum Chemistry (Wiley, 1973)

 Huckel EWMO eigenvalues for symmetry :  1
          -20.685262      -1.622177      -0.782376      -0.684721      -0.616200
           -0.227002      -0.162162

 **********************************************************************
 *SIRIUS* a direct, restricted step, second order MCSCF program       *
 **********************************************************************

 
     Date and time (Linux)  : Wed Nov 26 19:45:09 2025
     Host name              : xm045                                   

 Title lines from ".mol" input file:
     optimized 6Z geometry                                                   
     optimize_h2o_g2.out                                                     

 Print level on unit LUPRI =   2 is   0
 Print level on unit LUW4  =   2 is   5

@    Restricted, closed shell Hartree-Fock calculation.
 Fock matrices are calculated directly and in parallel without use of integrals on disk.

 Initial molecular orbitals are obtained according to
 ".MOSTART EWMO  " input option

     Wave function specification
     ============================
@    Wave function type        --- HF ---
@    Number of closed shell electrons          10
@    Number of electrons in active shells       0
@    Total charge of the molecule               0

@    Spin multiplicity and 2 M_S                1         0
@    Total number of symmetries                 1 (point group: C1 )
@    Reference state symmetry                   1 (irrep name : A  )

     Orbital specifications
     ======================
@    Abelian symmetry species          All |    1
@                                          |  A  
                                       --- |  ---
@    Occupied SCF orbitals               5 |    5
@    Secondary orbitals                557 |  557
@    Total number of orbitals          562 |  562
@    Number of basis functions         564 |  564

     Optimization information
     ========================
@    Number of configurations                 1
@    Number of orbital rotations           2785
     ------------------------------------------
@    Total number of variables             2786

     Maximum number of Fock   iterations      0
     Maximum number of DIIS   iterations     60
     Maximum number of QC-SCF iterations     60
     Threshold for SCF convergence     1.00D-08


 ***********************************************
 ***** DIIS acceleration of SCF iterations *****
 ***********************************************

 C1-DIIS algorithm; max error vectors =    8

 Iter      Total energy        Error norm    Delta(E)  DIIS dim.
 -----------------------------------------------------------------------------
   1  Screening settings (-IFTHRS, JTDIIS, DIFDEN, times)   -9    1    T  6.68D+01  6.76D+01
@  1    -75.8727409222        2.03833D+00   -7.59D+01    1
      Virial theorem: -V/T =      1.996803
@    MULPOP   O_a    -1.04; H_a     0.52; H_b     0.52; 
   1  Level shift: doubly occupied orbital energies shifted by -2.00D-01
 -----------------------------------------------------------------------------
   2  Screening settings (-IFTHRS, JTDIIS, DIFDEN, times)   -9    2    T  6.24D+01  6.32D+01
@  2    -76.0565899328        4.26789D-01   -1.84D-01    2
      Virial theorem: -V/T =      2.001853
@    MULPOP   O_a    -0.49; H_a     0.24; H_b     0.24; 
   2  Level shift: doubly occupied orbital energies shifted by -5.00D-02
 -----------------------------------------------------------------------------
   3  Screening settings (-IFTHRS, JTDIIS, DIFDEN, times)   -9    3    T  6.26D+01  6.34D+01
@  3    -76.0668181894        1.07474D-01   -1.02D-02    3
      Virial theorem: -V/T =      1.999375
@    MULPOP   O_a    -0.51; H_a     0.25; H_b     0.25; 
   3  Level shift: doubly occupied orbital energies shifted by -2.50D-02
 -----------------------------------------------------------------------------
   4  Screening settings (-IFTHRS, JTDIIS, DIFDEN, times)  -11    4    F  6.28D+01  6.36D+01
@  4    -76.0680192352        4.20197D-02   -1.20D-03    4
      Virial theorem: -V/T =      2.000595
@    MULPOP   O_a    -0.51; H_a     0.26; H_b     0.26; 
   4  Level shift: doubly occupied orbital energies shifted by -1.25D-02
 -----------------------------------------------------------------------------
   5  Screening settings (-IFTHRS, JTDIIS, DIFDEN, times)  -11    5    T  6.23D+01  6.30D+01
@  5    -76.0681304622        1.23957D-02   -1.11D-04    5
      Virial theorem: -V/T =      1.999819
@    MULPOP   O_a    -0.52; H_a     0.26; H_b     0.26; 
 -----------------------------------------------------------------------------
   6  Screening settings (-IFTHRS, JTDIIS, DIFDEN, times)  -11    6    T  6.21D+01  6.29D+01
@  6    -76.0681520490        2.80275D-03   -2.16D-05    6
      Virial theorem: -V/T =      1.999989
@    MULPOP   O_a    -0.52; H_a     0.26; H_b     0.26; 
 -----------------------------------------------------------------------------
   7  Screening settings (-IFTHRS, JTDIIS, DIFDEN, times)  -13    7    F  6.24D+01  6.31D+01
@  7    -76.0681535367        4.86238D-04   -1.49D-06    7
      Virial theorem: -V/T =      2.000002
@    MULPOP   O_a    -0.52; H_a     0.26; H_b     0.26; 
 -----------------------------------------------------------------------------
   8  Screening settings (-IFTHRS, JTDIIS, DIFDEN, times)  -13    8    T  6.29D+01  6.33D+01
@  8    -76.0681535741        6.90150D-05   -3.73D-08    8
      Virial theorem: -V/T =      2.000005
@    MULPOP   O_a    -0.52; H_a     0.26; H_b     0.26; 
 -----------------------------------------------------------------------------
   9  Screening settings (-IFTHRS, JTDIIS, DIFDEN, times)  -16    9    F  6.29D+01  6.35D+01
@  9    -76.0681535748        1.10831D-05   -7.02D-10    8
      Virial theorem: -V/T =      2.000006
@    MULPOP   O_a    -0.52; H_a     0.26; H_b     0.26; 
 -----------------------------------------------------------------------------
  10  Screening settings (-IFTHRS, JTDIIS, DIFDEN, times)  -16   10    T  6.28D+01  6.33D+01
@ 10    -76.0681535748        1.84084D-06   -1.51D-11    8
      Virial theorem: -V/T =      2.000006
@    MULPOP   O_a    -0.52; H_a     0.26; H_b     0.26; 
 -----------------------------------------------------------------------------
  11  Screening settings (-IFTHRS, JTDIIS, DIFDEN, times)  -16   11    T  6.29D+01  6.34D+01
@ 11    -76.0681535748        3.06970D-07   -8.95D-13    8
      Virial theorem: -V/T =      2.000006
@    MULPOP   O_a    -0.52; H_a     0.26; H_b     0.26; 
 -----------------------------------------------------------------------------
  12  Screening settings (-IFTHRS, JTDIIS, DIFDEN, times)  -16   12    T  6.30D+01  6.35D+01
@ 12    -76.0681535748        6.90204D-08   -2.13D-13    8
      Virial theorem: -V/T =      2.000006
@    MULPOP   O_a    -0.52; H_a     0.26; H_b     0.26; 
 -----------------------------------------------------------------------------
  13  Screening settings (-IFTHRS, JTDIIS, DIFDEN, times)  -16   13    T  6.38D+01  6.45D+01
@ 13    -76.0681535748        1.41977D-08   -8.53D-14    8
      Virial theorem: -V/T =      2.000006
@    MULPOP   O_a    -0.52; H_a     0.26; H_b     0.26; 
 -----------------------------------------------------------------------------
  14  Screening settings (-IFTHRS, JTDIIS, DIFDEN, times)  -16   14    T  6.28D+01  6.36D+01
@ 14    -76.0681535748        3.26726D-09    1.99D-13    8

@ *** DIIS converged in  14 iterations !
@     Converged SCF energy, gradient:    -76.068153574784    3.27D-09
    - total time used in SIRFCK :              0.00 seconds


 *** SCF orbital energy analysis ***

 Only the 20 lowest virtual orbital energies printed in each symmetry.

 Number of electrons :   10
 Orbital occupations :    5

 Sym       Hartree-Fock orbital energies

1 A     -20.56005245    -1.36060698    -0.73123733    -0.58474800    -0.51150772
          0.00560037     0.00979124     0.02294962     0.02310027     0.03071603
          0.03254450     0.04812870     0.05259767     0.05384349     0.05833799
          0.05907772     0.07678823     0.08096413     0.08752065     0.10554869
          0.11420540     0.12871547     0.13336522     0.13964837     0.14113631

    E(LUMO) :     0.00560037 au (symmetry 1)
  - E(HOMO) :    -0.51150772 au (symmetry 1)
  ------------------------------------------
    gap     :     0.51710809 au

 --- Writing SIRIFC interface file

 CPU and wall time for SCF :     894.720     904.181


                       .-----------------------------------.
                       | --- Final results from SIRIUS --- |
                       `-----------------------------------'


@    Spin multiplicity:           1
@    Spatial symmetry:            1 ( irrep  A   in C1  )
@    Total charge of molecule:    0

@    Final HF energy:             -76.068153574784                 
@    Nuclear repulsion:             9.362527736322
@    Electronic energy:           -85.430681311106

@    Final gradient norm:           0.000000003267

 
     Date and time (Linux)  : Wed Nov 26 20:00:13 2025
     Host name              : xm045                                   

File label for MO orbitals:  26Nov25   FOCKDIIS

 (Only coefficients > 0.0100 are printed.)

 Molecular orbitals for symmetry species 1  (A  )
 ------------------------------------------------

    Orbital         1        2        3        4        5        6        7
   1 O_a :1s    -1.0006   0.0041  -0.0000  -0.0029   0.0000  -0.0009   0.0000
   2 O_a :1s    -0.0031  -0.8804  -0.0000  -0.3041   0.0000  -0.0381   0.0000
   4 O_a :1s     0.0002   0.0052   0.0000  -0.0024  -0.0000   0.0135   0.0000
   5 O_a :1s     0.0014   0.0263   0.0000  -0.0054   0.0000   0.0105  -0.0000
   6 O_a :1s    -0.0004   0.0362  -0.0000  -0.0457  -0.0000  -0.5907  -0.0000
   7 O_a :1s    -0.0051  -0.0338  -0.0000  -0.0653   0.0000  -1.6843   0.0000
   8 O_a :1s    -0.0006  -0.0028  -0.0000   0.0043  -0.0000  -3.0299   0.0000
   9 O_a :1s     0.0003  -0.0003   0.0000   0.0008   0.0000   6.2293  -0.0000
  10 O_a :2px    0.0000   0.0000  -0.0000   0.0000   0.9223   0.0000   0.0000
  11 O_a :2py    0.0000   0.0000  -0.7427  -0.0000  -0.0000  -0.0000  -0.0122
  12 O_a :2pz   -0.0117  -0.1194  -0.0000   0.8201  -0.0000  -0.0307  -0.0000
  20 O_a :2py    0.0000  -0.0000   0.0165  -0.0000   0.0000   0.0000   0.0905
  21 O_a :2pz    0.0039  -0.0035  -0.0000  -0.0065  -0.0000  -0.1064  -0.0000
  22 O_a :2px    0.0000   0.0000  -0.0000   0.0000   0.0211   0.0000   0.0000
  23 O_a :2py   -0.0000  -0.0000   0.0639   0.0000   0.0000  -0.0000   0.1598
  24 O_a :2pz    0.0011  -0.0081  -0.0000   0.0037  -0.0000  -0.2202  -0.0000
  25 O_a :2px    0.0000   0.0000  -0.0000   0.0000   0.0397   0.0000   0.0000
  26 O_a :2py   -0.0000  -0.0000   0.1043  -0.0000   0.0000  -0.0000  -0.4745
  27 O_a :2pz   -0.0000  -0.0106   0.0000   0.0179   0.0000  -0.1417  -0.0000
  29 O_a :2py   -0.0000   0.0000   0.0018  -0.0000   0.0000  -0.0000  -1.3767
  30 O_a :2pz   -0.0001  -0.0026  -0.0000   0.0036   0.0000   0.4169  -0.0000
  32 O_a :2py   -0.0000   0.0000   0.0003   0.0000   0.0000  -0.0000  -2.8718
  33 O_a :2pz   -0.0000  -0.0002   0.0000   0.0000   0.0000   0.4102  -0.0000
  45 O_a :3d1-  -0.0000   0.0000  -0.0146  -0.0000   0.0000   0.0000  -0.0016
  50 O_a :3d1-   0.0000  -0.0000  -0.0238  -0.0000   0.0000  -0.0000   0.0573
  51 O_a :3d0    0.0002  -0.0021  -0.0000   0.0104  -0.0000   0.0046  -0.0000
  52 O_a :3d1+   0.0000   0.0000  -0.0000   0.0000   0.0101   0.0000   0.0000
  53 O_a :3d2+   0.0003   0.0115  -0.0000  -0.0066  -0.0000   0.0348  -0.0000
  55 O_a :3d1-  -0.0000  -0.0000  -0.0090   0.0000   0.0000  -0.0000   0.1856
  56 O_a :3d0    0.0002  -0.0017  -0.0000   0.0100  -0.0000   0.0275  -0.0000
  57 O_a :3d1+   0.0000   0.0000  -0.0000   0.0000   0.0101   0.0000   0.0000
  58 O_a :3d2+   0.0008   0.0146   0.0000  -0.0059  -0.0000   0.0216  -0.0000
  60 O_a :3d1-  -0.0000  -0.0000   0.0194  -0.0000   0.0000  -0.0000   0.1525
  61 O_a :3d0    0.0000  -0.0006   0.0000   0.0062   0.0000   0.0352   0.0000
  63 O_a :3d2+   0.0004   0.0083   0.0000  -0.0028  -0.0000  -0.0524   0.0000
  65 O_a :3d1-  -0.0000   0.0000   0.0006  -0.0000   0.0000   0.0000   0.0261
  66 O_a :3d0   -0.0000  -0.0001   0.0000   0.0011   0.0000   0.0177   0.0000
  68 O_a :3d2+   0.0000   0.0011   0.0000   0.0000  -0.0000  -0.0978   0.0000
  85 O_a :4f1-  -0.0000  -0.0000  -0.0021   0.0000   0.0000  -0.0000   0.0118
  90 O_a :4f3-   0.0000  -0.0000   0.0031  -0.0000  -0.0000   0.0000   0.0369
  92 O_a :4f1-   0.0000  -0.0000  -0.0007   0.0000   0.0000   0.0000   0.0743
  97 O_a :4f3-   0.0000  -0.0000   0.0084  -0.0000  -0.0000   0.0000   0.1469
  99 O_a :4f1-   0.0000  -0.0000   0.0060  -0.0000   0.0000   0.0000   0.1857
 100 O_a :4f0   -0.0000   0.0018   0.0000   0.0013   0.0000  -0.0370   0.0000
 102 O_a :4f2+  -0.0000   0.0042   0.0000   0.0003  -0.0000  -0.0785   0.0000
 104 O_a :4f3-   0.0000  -0.0000   0.0012  -0.0000  -0.0000  -0.0000   0.1089
 106 O_a :4f1-   0.0000  -0.0000   0.0007  -0.0000   0.0000   0.0000   0.0911
 107 O_a :4f0    0.0000   0.0005   0.0000   0.0004  -0.0000  -0.0203   0.0000
 109 O_a :4f2+   0.0000   0.0010   0.0000  -0.0003  -0.0000  -0.0456   0.0000
 139 O_a :5g3-   0.0000  -0.0000   0.0005  -0.0000  -0.0000   0.0000   0.0162
 141 O_a :5g1-   0.0000  -0.0000   0.0004  -0.0000  -0.0000   0.0000   0.0182
 144 O_a :5g2+  -0.0001   0.0013   0.0000   0.0003   0.0000  -0.0101   0.0000
 148 O_a :5g3-   0.0000  -0.0000   0.0030  -0.0000  -0.0000   0.0000   0.0360
 150 O_a :5g1-   0.0000  -0.0000   0.0024  -0.0000  -0.0000   0.0000   0.0526
 151 O_a :5g0   -0.0000   0.0003   0.0000   0.0005   0.0000  -0.0178   0.0000
 153 O_a :5g2+  -0.0000   0.0004   0.0000   0.0004   0.0000  -0.0261   0.0000
 239 H_a :1s    -0.0009  -0.4203  -0.6383   0.3680  -0.0000   0.0072  -0.0037
 241 H_a :1s     0.0005   0.0383   0.0272  -0.0125   0.0000  -0.0047  -0.0232
 242 H_a :1s     0.0025   0.1158   0.0927  -0.0557  -0.0000   0.2436  -0.2884
 243 H_a :1s     0.0024   0.1580   0.0231  -0.0966  -0.0000   0.8156  -0.5627
 244 H_a :1s     0.0000   0.0395   0.0092  -0.0420   0.0000   0.9515  -0.5389
 245 H_a :1s    -0.0001  -0.0002  -0.0062  -0.0002  -0.0000  -3.0764  10.9344
 246 H_a :1s     0.0000  -0.0000  -0.0002   0.0000  -0.0000   0.8283  10.2474
 256 H_a :2px   -0.0000  -0.0000   0.0000  -0.0000   0.0176  -0.0000  -0.0000
 257 H_a :2py   -0.0003   0.0119   0.0104  -0.0117  -0.0000  -0.0681   0.1204
 258 H_a :2pz   -0.0005   0.0074   0.0141   0.0069   0.0000  -0.0741  -0.0314
 259 H_a :2px   -0.0000  -0.0000   0.0000  -0.0000   0.0162  -0.0000  -0.0000
 260 H_a :2py   -0.0003   0.0076   0.0391  -0.0031   0.0000  -0.3073   0.5433
 261 H_a :2pz   -0.0005   0.0039   0.0094   0.0112   0.0000  -0.2896  -0.2455
 263 H_a :2py    0.0001   0.0056   0.0140   0.0004  -0.0000  -0.4238   0.7672
 264 H_a :2pz    0.0001   0.0045   0.0011   0.0020  -0.0000  -0.4221  -0.5398
 266 H_a :2py    0.0000   0.0005   0.0010  -0.0003  -0.0000   0.2761  -0.9808
 267 H_a :2pz    0.0000   0.0005   0.0003  -0.0003  -0.0000   0.2239  -1.0781
 279 H_a :3d1-   0.0001  -0.0029  -0.0026   0.0004  -0.0000   0.0154  -0.0074
 280 H_a :3d0    0.0001   0.0001  -0.0013  -0.0020  -0.0000   0.0041   0.0191
 282 H_a :3d2+  -0.0000   0.0019   0.0010  -0.0020   0.0000  -0.0088   0.0116
 284 H_a :3d1-  -0.0001  -0.0037  -0.0025   0.0002  -0.0000   0.0392   0.0014
 285 H_a :3d0    0.0001   0.0004  -0.0002  -0.0019  -0.0000   0.0123   0.0576
 287 H_a :3d2+   0.0001   0.0021   0.0011  -0.0016   0.0000  -0.0269   0.0220
 289 H_a :3d1-  -0.0001  -0.0021   0.0064  -0.0000   0.0000   0.0075  -0.0129
 290 H_a :3d0   -0.0000  -0.0000  -0.0008  -0.0012  -0.0000   0.0147   0.0513
 292 H_a :3d2+   0.0000   0.0004  -0.0048  -0.0007   0.0000  -0.0021  -0.0336
 294 H_a :3d1-  -0.0000  -0.0005  -0.0000  -0.0003   0.0000   0.0359   0.0877
 295 H_a :3d0   -0.0000  -0.0001   0.0000  -0.0005  -0.0000   0.0188   0.0810
 319 H_a :4f3-  -0.0000   0.0001   0.0015   0.0003  -0.0000  -0.0090   0.0198
 322 H_a :4f0   -0.0000  -0.0003   0.0017   0.0002  -0.0000  -0.0071   0.0114
 324 H_a :4f2+   0.0000  -0.0001   0.0019   0.0003  -0.0000  -0.0091   0.0155
 326 H_a :4f3-   0.0000   0.0001   0.0002   0.0001  -0.0000  -0.0051   0.0134
 328 H_a :4f1-  -0.0000   0.0000   0.0005   0.0003   0.0000   0.0001   0.0128
 329 H_a :4f0    0.0000  -0.0000  -0.0001   0.0000   0.0000  -0.0104   0.0067
 331 H_a :4f2+   0.0000   0.0001   0.0005  -0.0001  -0.0000  -0.0157   0.0331
 402 H_b :1s    -0.0009  -0.4203   0.6383   0.3680  -0.0000   0.0072   0.0037
 404 H_b :1s     0.0005   0.0383  -0.0272  -0.0125   0.0000  -0.0047   0.0232
 405 H_b :1s     0.0025   0.1158  -0.0927  -0.0557   0.0000   0.2436   0.2884
 406 H_b :1s     0.0024   0.1580  -0.0231  -0.0966  -0.0000   0.8156   0.5627
 407 H_b :1s     0.0000   0.0395  -0.0092  -0.0420   0.0000   0.9515   0.5389
 408 H_b :1s    -0.0001  -0.0002   0.0062  -0.0002   0.0000  -3.0764 -10.9344
 409 H_b :1s     0.0000  -0.0000   0.0002   0.0000   0.0000   0.8283 -10.2474
 419 H_b :2px   -0.0000  -0.0000   0.0000  -0.0000   0.0176  -0.0000  -0.0000
 420 H_b :2py    0.0003  -0.0119   0.0104   0.0117   0.0000   0.0681   0.1204
 421 H_b :2pz   -0.0005   0.0074  -0.0141   0.0069   0.0000  -0.0741   0.0314
 422 H_b :2px   -0.0000  -0.0000   0.0000  -0.0000   0.0162  -0.0000  -0.0000
 423 H_b :2py    0.0003  -0.0076   0.0391   0.0031  -0.0000   0.3073   0.5433
 424 H_b :2pz   -0.0005   0.0039  -0.0094   0.0112   0.0000  -0.2896   0.2455
 426 H_b :2py   -0.0001  -0.0056   0.0140  -0.0004   0.0000   0.4238   0.7672
 427 H_b :2pz    0.0001   0.0045  -0.0011   0.0020  -0.0000  -0.4221   0.5398
 429 H_b :2py   -0.0000  -0.0005   0.0010   0.0003   0.0000  -0.2761  -0.9808
 430 H_b :2pz    0.0000   0.0005  -0.0003  -0.0003  -0.0000   0.2239   1.0781
 442 H_b :3d1-  -0.0001   0.0029  -0.0026  -0.0004   0.0000  -0.0154  -0.0074
 443 H_b :3d0    0.0001   0.0001   0.0013  -0.0020  -0.0000   0.0041  -0.0191
 445 H_b :3d2+  -0.0000   0.0019  -0.0010  -0.0020   0.0000  -0.0088  -0.0116
 447 H_b :3d1-   0.0001   0.0037  -0.0025  -0.0002   0.0000  -0.0392   0.0014
 448 H_b :3d0    0.0001   0.0004   0.0002  -0.0019  -0.0000   0.0123  -0.0576
 450 H_b :3d2+   0.0001   0.0021  -0.0011  -0.0016   0.0000  -0.0269  -0.0220
 452 H_b :3d1-   0.0001   0.0021   0.0064   0.0000  -0.0000  -0.0075  -0.0129
 453 H_b :3d0   -0.0000  -0.0000   0.0008  -0.0012  -0.0000   0.0147  -0.0513
 455 H_b :3d2+   0.0000   0.0004   0.0048  -0.0007   0.0000  -0.0021   0.0336
 457 H_b :3d1-   0.0000   0.0005  -0.0000   0.0003  -0.0000  -0.0359   0.0877
 458 H_b :3d0   -0.0000  -0.0001  -0.0000  -0.0005  -0.0000   0.0188  -0.0810
 482 H_b :4f3-   0.0000  -0.0001   0.0015  -0.0003   0.0000   0.0090   0.0198
 485 H_b :4f0   -0.0000  -0.0003  -0.0017   0.0002   0.0000  -0.0071  -0.0114
 487 H_b :4f2+   0.0000  -0.0001  -0.0019   0.0003  -0.0000  -0.0091  -0.0155
 489 H_b :4f3-  -0.0000  -0.0001   0.0002  -0.0001   0.0000   0.0051   0.0134
 491 H_b :4f1-   0.0000  -0.0000   0.0005  -0.0003  -0.0000  -0.0001   0.0128
 492 H_b :4f0    0.0000  -0.0000   0.0001   0.0000   0.0000  -0.0104  -0.0067
 494 H_b :4f2+   0.0000   0.0001  -0.0005  -0.0001  -0.0000  -0.0157  -0.0331

    Orbital         8        9       10       11       12       13       14
   2 O_a :1s    -0.0000   0.0013  -0.0692  -0.0000   0.0000  -0.0008  -0.0000
   4 O_a :1s     0.0000  -0.0218  -0.0418  -0.0000   0.0000  -0.0135   0.0000
   5 O_a :1s    -0.0000   0.0838   0.0131  -0.0000  -0.0000   0.1259  -0.0000
   6 O_a :1s     0.0000   0.2825   1.7012   0.0000  -0.0000   0.3540   0.0000
   7 O_a :1s    -0.0000  -0.5753   4.0978   0.0000   0.0000  -0.8287  -0.0000
   8 O_a :1s     0.0000   9.5103   6.9473   0.0000   0.0000  -9.5063   0.0000
   9 O_a :1s    -0.0000   1.5475 -18.5622  -0.0000  -0.0000   5.6277  -0.0000
  10 O_a :2px   -0.0292  -0.0000   0.0000  -0.0000   0.0000  -0.0000  -0.0000
  11 O_a :2py    0.0000  -0.0000  -0.0000   0.0376  -0.0265  -0.0000   0.0000
  12 O_a :2pz    0.0000   0.0276  -0.0541   0.0000  -0.0000   0.0169   0.0000
  16 O_a :2px    0.0112   0.0000  -0.0000   0.0000  -0.0000   0.0000   0.0000
  17 O_a :2py   -0.0000  -0.0000  -0.0000  -0.0070  -0.0352   0.0000  -0.0000
  18 O_a :2pz   -0.0000   0.0217   0.0191  -0.0000  -0.0000  -0.0189  -0.0000
  19 O_a :2px   -0.0620  -0.0000   0.0000  -0.0000   0.0000  -0.0000   0.0000
  20 O_a :2py   -0.0000  -0.0000  -0.0000   0.2811   0.8895   0.0000  -0.0000
  21 O_a :2pz    0.0000  -0.0231   0.2930   0.0000   0.0000   0.4978   0.0000
  22 O_a :2px   -0.3692  -0.0000   0.0000  -0.0000   0.0000  -0.0000   0.0000
  23 O_a :2py   -0.0000   0.0000   0.0000   0.6391   3.4051   0.0000  -0.0000
  24 O_a :2pz    0.0000  -0.4922   0.4547  -0.0000   0.0000   1.1764   0.0000
  25 O_a :2px    0.1214  -0.0000   0.0000  -0.0000   0.0000  -0.0000  -0.0000
  26 O_a :2py   -0.0000   0.0000   0.0000  -0.9454   0.2432  -0.0000  -0.0000
  27 O_a :2pz   -0.0000  -1.2109  -0.0313  -0.0000   0.0000   1.1761  -0.0000
  28 O_a :2px    1.1762  -0.0000   0.0000  -0.0000   0.0000  -0.0000  -0.0000
  29 O_a :2py   -0.0000   0.0000   0.0000  -3.1878  -0.8765  -0.0000  -0.0000
  30 O_a :2pz   -0.0000  -1.3208  -1.7307  -0.0000  -0.0000   2.2173  -0.0000
  31 O_a :2px    2.0574  -0.0000   0.0000  -0.0000   0.0000  -0.0000  -0.0000
  32 O_a :2py   -0.0000   0.0000   0.0000  -7.1407  -3.3737  -0.0000  -0.0000
  33 O_a :2pz   -0.0000  -2.0402  -0.9063  -0.0000  -0.0000   0.9903  -0.0000
  48 O_a :3d2+   0.0000  -0.0049  -0.0106   0.0000   0.0000  -0.0106   0.0000
  49 O_a :3d2-   0.0000   0.0000  -0.0000   0.0000  -0.0000   0.0000  -0.2832
  50 O_a :3d1-  -0.0000   0.0000   0.0000   0.1500   0.2228  -0.0000  -0.0000
  51 O_a :3d0    0.0000  -0.0844  -0.0086  -0.0000   0.0000   0.3439   0.0000
  52 O_a :3d1+  -0.0470  -0.0000   0.0000  -0.0000   0.0000  -0.0000  -0.0000
  53 O_a :3d2+   0.0000  -0.0663  -0.0789  -0.0000  -0.0000   0.2126   0.0000
  54 O_a :3d2-   0.0000   0.0000  -0.0000   0.0000  -0.0000   0.0000  -0.8217
  55 O_a :3d1-  -0.0000   0.0000   0.0000   0.4907   0.6473  -0.0000  -0.0000
  56 O_a :3d0    0.0000  -0.2036  -0.0636   0.0000   0.0000   0.8184   0.0000
  57 O_a :3d1+  -0.2281  -0.0000   0.0000  -0.0000   0.0000  -0.0000  -0.0000
  58 O_a :3d2+   0.0000  -0.2523   0.0557  -0.0000  -0.0000   0.4881   0.0000
  59 O_a :3d2-   0.0000   0.0000  -0.0000   0.0000  -0.0000   0.0000  -0.7609
  60 O_a :3d1-  -0.0000   0.0000   0.0000   0.4102  -0.3023  -0.0000  -0.0000
  61 O_a :3d0   -0.0000  -0.2260  -0.0893   0.0000  -0.0000   0.8398  -0.0000
  62 O_a :3d1+  -0.4356  -0.0000   0.0000  -0.0000   0.0000  -0.0000  -0.0000
  63 O_a :3d2+   0.0000  -0.1109   0.3340   0.0000  -0.0000   0.3932   0.0000
  64 O_a :3d2-   0.0000   0.0000  -0.0000   0.0000  -0.0000   0.0000  -0.7360
  65 O_a :3d1-  -0.0000   0.0000  -0.0000   0.0962  -0.4642  -0.0000  -0.0000
  66 O_a :3d0   -0.0000  -0.3516  -0.0301   0.0000  -0.0000   0.7204  -0.0000
  67 O_a :3d1+  -0.1045  -0.0000   0.0000  -0.0000   0.0000  -0.0000  -0.0000
  68 O_a :3d2+   0.0000  -0.1827   0.4224   0.0000  -0.0000   0.4694   0.0000
  83 O_a :4f3-   0.0000   0.0000  -0.0000  -0.0021  -0.0371  -0.0000   0.0000
  84 O_a :4f2-   0.0000   0.0000  -0.0000   0.0000  -0.0000   0.0000  -0.0658
  85 O_a :4f1-  -0.0000   0.0000   0.0000   0.0248  -0.0189  -0.0000  -0.0000
  86 O_a :4f0    0.0000  -0.0112  -0.0092   0.0000  -0.0000   0.0446   0.0000
  88 O_a :4f2+   0.0000  -0.0066  -0.0148  -0.0000  -0.0000   0.0094   0.0000
  89 O_a :4f3+   0.0110   0.0000  -0.0000   0.0000  -0.0000   0.0000  -0.0000
  90 O_a :4f3-   0.0000   0.0000  -0.0000   0.0819  -0.0549  -0.0000   0.0000
  91 O_a :4f2-   0.0000  -0.0000   0.0000  -0.0000   0.0000  -0.0000  -0.2784
  92 O_a :4f1-  -0.0000   0.0000  -0.0000   0.1675  -0.1142  -0.0000  -0.0000
  93 O_a :4f0   -0.0000  -0.0220   0.0170   0.0000  -0.0000   0.1468  -0.0000
  94 O_a :4f1+  -0.0369   0.0000  -0.0000   0.0000  -0.0000   0.0000  -0.0000
  95 O_a :4f2+  -0.0000  -0.0178   0.0481   0.0000  -0.0000   0.0322  -0.0000
  96 O_a :4f3+   0.0648   0.0000  -0.0000   0.0000  -0.0000   0.0000  -0.0000
  97 O_a :4f3-   0.0000   0.0000  -0.0000   0.3601   0.1194  -0.0000   0.0000
  98 O_a :4f2-   0.0000   0.0000  -0.0000   0.0000  -0.0000   0.0000  -0.4376
  99 O_a :4f1-  -0.0000   0.0000  -0.0000   0.4387  -0.2366  -0.0000  -0.0000
 100 O_a :4f0   -0.0000  -0.0644   0.1235   0.0000  -0.0000   0.1737  -0.0000
 101 O_a :4f1+  -0.0829   0.0000  -0.0000   0.0000  -0.0000   0.0000  -0.0000
 102 O_a :4f2+   0.0000  -0.1281   0.2635   0.0000  -0.0000   0.0022   0.0000
 103 O_a :4f3+   0.1032   0.0000  -0.0000   0.0000  -0.0000   0.0000  -0.0000
 104 O_a :4f3-   0.0000   0.0000   0.0000   0.2986   0.3737   0.0000   0.0000
 105 O_a :4f2-   0.0000   0.0000  -0.0000   0.0000  -0.0000   0.0000  -0.2763
 106 O_a :4f1-  -0.0000   0.0000  -0.0000   0.2442   0.0403  -0.0000  -0.0000
 107 O_a :4f0    0.0000   0.0010   0.0750   0.0000   0.0000   0.1275   0.0000
 108 O_a :4f1+  -0.0734   0.0000  -0.0000   0.0000  -0.0000   0.0000  -0.0000
 109 O_a :4f2+   0.0000   0.0307   0.1648   0.0000   0.0000   0.0339   0.0000
 129 O_a :5g4-  -0.0000  -0.0000   0.0000  -0.0000   0.0000  -0.0000   0.0287
 130 O_a :5g3-   0.0000  -0.0000  -0.0000   0.0007  -0.0186   0.0000   0.0000
 131 O_a :5g2-  -0.0000  -0.0000   0.0000  -0.0000   0.0000  -0.0000  -0.0320
 132 O_a :5g1-   0.0000  -0.0000  -0.0000   0.0100  -0.0467   0.0000   0.0000
 135 O_a :5g2+  -0.0000   0.0094   0.0046   0.0000  -0.0000  -0.0329  -0.0000
 136 O_a :5g3+   0.0165   0.0000  -0.0000   0.0000  -0.0000   0.0000   0.0000
 137 O_a :5g4+  -0.0000   0.0113  -0.0017   0.0000   0.0000  -0.0194  -0.0000
 139 O_a :5g3-   0.0000  -0.0000  -0.0000   0.0372  -0.0000   0.0000   0.0000
 140 O_a :5g2-  -0.0000  -0.0000   0.0000  -0.0000   0.0000  -0.0000  -0.0790
 141 O_a :5g1-   0.0000  -0.0000  -0.0000   0.0345  -0.1333   0.0000   0.0000
 142 O_a :5g0   -0.0000   0.0230   0.0163   0.0000  -0.0000   0.0156  -0.0000
 144 O_a :5g2+  -0.0000   0.0266   0.0225   0.0000  -0.0000  -0.0096  -0.0000
 145 O_a :5g3+   0.0408   0.0000  -0.0000   0.0000  -0.0000   0.0000  -0.0000
 146 O_a :5g4+  -0.0000   0.0319  -0.0042   0.0000   0.0000   0.0013  -0.0000
 147 O_a :5g4-  -0.0000  -0.0000   0.0000  -0.0000   0.0000  -0.0000  -0.0132
 148 O_a :5g3-   0.0000  -0.0000  -0.0000   0.0872   0.0153  -0.0000   0.0000
 149 O_a :5g2-  -0.0000   0.0000  -0.0000   0.0000  -0.0000   0.0000  -0.0994
 150 O_a :5g1-   0.0000   0.0000  -0.0000   0.1224  -0.0847  -0.0000   0.0000
 151 O_a :5g0   -0.0000  -0.0092   0.0502   0.0000  -0.0000   0.0358  -0.0000
 153 O_a :5g2+  -0.0000  -0.0133   0.0741   0.0000   0.0000   0.0113  -0.0000
 154 O_a :5g3+   0.0376   0.0000  -0.0000   0.0000  -0.0000   0.0000  -0.0000
 155 O_a :5g4+  -0.0000   0.0438  -0.0153   0.0000   0.0000   0.0271  -0.0000
 182 O_a :6h1-   0.0000  -0.0000  -0.0000  -0.0076  -0.0266   0.0000   0.0000
 189 O_a :6h5-   0.0000  -0.0000  -0.0000  -0.0083  -0.0142  -0.0000   0.0000
 192 O_a :6h2-  -0.0000  -0.0000   0.0000  -0.0000   0.0000  -0.0000  -0.0206
 193 O_a :6h1-   0.0000  -0.0000  -0.0000  -0.0026  -0.0402  -0.0000   0.0000
 194 O_a :6h0   -0.0000   0.0088   0.0016  -0.0000  -0.0000   0.0146  -0.0000
 196 O_a :6h2+  -0.0000   0.0107   0.0030  -0.0000  -0.0000   0.0155  -0.0000
 197 O_a :6h3+   0.0111   0.0000  -0.0000   0.0000  -0.0000   0.0000  -0.0000
 198 O_a :6h4+  -0.0000   0.0097   0.0014  -0.0000   0.0000   0.0137  -0.0000
 239 H_a :1s     0.0000   0.0030  -0.0071   0.0107  -0.0034   0.0025   0.0000
 240 H_a :1s    -0.0000   0.0048   0.0190   0.0072   0.0157  -0.0009  -0.0000
 241 H_a :1s    -0.0000  -0.0228   0.0549  -0.0787  -0.2787   0.0633  -0.0000
 242 H_a :1s     0.0000  -0.3315  -0.4457  -0.8362  -2.2051   0.1088   0.0000
 243 H_a :1s     0.0000   1.7602  -1.9423  -1.5434  -1.2267   1.3440   0.0000
 244 H_a :1s    -0.0000  -5.0639  -1.8094  -1.7464  -3.0667   5.0822  -0.0000
 245 H_a :1s     0.0000  -1.0320   9.2874  33.8871  56.8392  -2.6656   0.0000
 246 H_a :1s     0.0000   0.2122  -1.0330  12.2408   1.4123  -0.0699   0.0000
 254 H_a :2py    0.0000  -0.0009   0.0008   0.0154   0.0315  -0.0090   0.0000
 255 H_a :2pz   -0.0000   0.0052  -0.0022   0.0047   0.0239  -0.0070  -0.0000
 256 H_a :2px    0.1584   0.0000  -0.0000   0.0000  -0.0000   0.0000   0.4568
 257 H_a :2py    0.0000  -0.0393   0.1961   0.2912   0.1856   0.2720   0.0000
 258 H_a :2pz   -0.0000   0.1786   0.1821  -0.0361   0.5450  -0.3215  -0.0000
 259 H_a :2px    0.3257   0.0000  -0.0000   0.0000  -0.0000   0.0000   1.4898
 260 H_a :2py   -0.0000  -0.3446   0.9356   1.3266   0.6244   0.6941  -0.0000
 261 H_a :2pz   -0.0000   0.1736   0.8140  -0.4847   1.5510  -0.8779  -0.0000
 262 H_a :2px   -0.1840   0.0000  -0.0000   0.0000  -0.0000   0.0000   3.9895
 263 H_a :2py    0.0000   1.0907   1.3812   1.9990   2.0358   2.1159   0.0000
 264 H_a :2pz    0.0000   1.8391   1.2425  -1.1688   2.6880  -2.0609   0.0000
 265 H_a :2px   -1.0624   0.0000  -0.0000   0.0000  -0.0000   0.0000   5.1703
 266 H_a :2py    0.0000   0.5469  -0.4462  -3.8104  -9.9219   4.2090   0.0000
 267 H_a :2pz    0.0000   1.2387  -0.3616  -2.7089   2.7554  -0.9143   0.0000
 278 H_a :3d2-  -0.0290  -0.0000   0.0000  -0.0000   0.0000  -0.0000  -0.1035
 279 H_a :3d1-   0.0000  -0.0209  -0.0451  -0.0248  -0.1025   0.0283   0.0000
 280 H_a :3d0    0.0000  -0.0377  -0.0069   0.0407  -0.0453   0.1130   0.0000
 281 H_a :3d1+  -0.0178  -0.0000   0.0000  -0.0000   0.0000  -0.0000  -0.0664
 282 H_a :3d2+  -0.0000  -0.0005   0.0254   0.0246  -0.0197   0.0780  -0.0000
 283 H_a :3d2-  -0.0506  -0.0000   0.0000  -0.0000   0.0000  -0.0000  -0.3396
 284 H_a :3d1-   0.0000  -0.0259  -0.1349  -0.0172  -0.2659   0.0810   0.0000
 285 H_a :3d0    0.0000  -0.0846  -0.0251   0.1255  -0.0742   0.2712   0.0000
 286 H_a :3d1+  -0.0049  -0.0000   0.0000  -0.0000   0.0000  -0.0000  -0.1240
 287 H_a :3d2+  -0.0000   0.0112   0.0848   0.0391  -0.1407   0.2430  -0.0000
 288 H_a :3d2-   0.0459  -0.0000   0.0000  -0.0000   0.0000  -0.0000  -0.6422
 289 H_a :3d1-  -0.0000  -0.1432  -0.0678  -0.0861  -0.6970   0.1092  -0.0000
 290 H_a :3d0    0.0000  -0.0692  -0.0417   0.1000  -0.0853   0.4412   0.0000
 291 H_a :3d1+   0.1798  -0.0000   0.0000  -0.0000   0.0000  -0.0000   0.0467
 292 H_a :3d2+  -0.0000   0.2147   0.0003  -0.1154  -0.3249   0.6251  -0.0000
 293 H_a :3d2-   0.1475  -0.0000   0.0000  -0.0000   0.0000  -0.0000  -1.1991
 294 H_a :3d1-  -0.0000  -0.1805  -0.1617   0.1613  -0.7951   0.1615  -0.0000
 295 H_a :3d0    0.0000  -0.1647  -0.0293   0.1552  -0.3274   0.7013   0.0000
 296 H_a :3d1+   0.2384  -0.0000   0.0000  -0.0000   0.0000  -0.0000  -0.0818
 297 H_a :3d2+  -0.0000   0.1897   0.0333  -0.0610  -0.5205   0.9785  -0.0000
 312 H_a :4f3-   0.0000  -0.0046  -0.0045   0.0040   0.0264  -0.0396   0.0000
 313 H_a :4f2-   0.0046   0.0000  -0.0000   0.0000  -0.0000   0.0000   0.0419
 314 H_a :4f1-  -0.0000   0.0164   0.0095  -0.0065   0.0405  -0.0557  -0.0000
 315 H_a :4f0   -0.0000   0.0085  -0.0039  -0.0139  -0.0162  -0.0319  -0.0000
 317 H_a :4f2+   0.0000  -0.0065  -0.0117  -0.0020  -0.0122  -0.0099   0.0000
 318 H_a :4f3+  -0.0061  -0.0000   0.0000  -0.0000   0.0000  -0.0000  -0.0445
 319 H_a :4f3-   0.0000  -0.0257   0.0260   0.0539   0.0828  -0.0637   0.0000
 320 H_a :4f2-  -0.0235   0.0000  -0.0000   0.0000  -0.0000   0.0000   0.0365
 321 H_a :4f1-  -0.0000   0.0223  -0.0068   0.0225   0.0571  -0.0538  -0.0000
 322 H_a :4f0    0.0000   0.0045   0.0149   0.0260  -0.0338  -0.0498   0.0000
 323 H_a :4f1+  -0.0138   0.0000  -0.0000   0.0000  -0.0000   0.0000  -0.0252
 324 H_a :4f2+   0.0000  -0.0260   0.0215   0.0383   0.0229  -0.0359   0.0000
 325 H_a :4f3+   0.0132  -0.0000   0.0000  -0.0000   0.0000  -0.0000  -0.0497
 326 H_a :4f3-   0.0000  -0.0255   0.0168   0.0455   0.1710  -0.1556   0.0000
 327 H_a :4f2-  -0.0442   0.0000  -0.0000   0.0000  -0.0000   0.0000   0.0068
 328 H_a :4f1-  -0.0000   0.0168  -0.0033   0.0537   0.1600  -0.1307  -0.0000
 329 H_a :4f0   -0.0000   0.0558   0.0168   0.0162  -0.0447  -0.0157  -0.0000
 330 H_a :4f1+  -0.0420   0.0000  -0.0000   0.0000  -0.0000   0.0000  -0.0749
 331 H_a :4f2+   0.0000   0.0347   0.0326   0.0840   0.0212  -0.0234   0.0000
 332 H_a :4f3+   0.0364   0.0000  -0.0000   0.0000  -0.0000   0.0000  -0.1690
 352 H_a :5g3-  -0.0000   0.0035  -0.0109  -0.0075  -0.0058   0.0054  -0.0000
 354 H_a :5g1-   0.0000  -0.0014  -0.0045  -0.0114  -0.0063   0.0023   0.0000
 360 H_a :5g4-  -0.0040   0.0000  -0.0000   0.0000  -0.0000   0.0000   0.0294
 361 H_a :5g3-  -0.0000  -0.0220   0.0001  -0.0183  -0.0166  -0.0001  -0.0000
 362 H_a :5g2-   0.0033  -0.0000   0.0000  -0.0000   0.0000  -0.0000  -0.0225
 363 H_a :5g1-   0.0000  -0.0197  -0.0006  -0.0136  -0.0316   0.0035   0.0000
 365 H_a :5g1+   0.0068   0.0000  -0.0000   0.0000  -0.0000   0.0000   0.0194
 367 H_a :5g3+   0.0122   0.0000  -0.0000   0.0000  -0.0000   0.0000   0.0093
 368 H_a :5g4+  -0.0000   0.0164  -0.0142  -0.0096   0.0174   0.0012  -0.0000
 402 H_b :1s     0.0000   0.0030  -0.0071  -0.0107   0.0034   0.0025   0.0000
 403 H_b :1s    -0.0000   0.0048   0.0190  -0.0072  -0.0157  -0.0009  -0.0000
 404 H_b :1s    -0.0000  -0.0228   0.0549   0.0787   0.2787   0.0633  -0.0000
 405 H_b :1s    -0.0000  -0.3315  -0.4457   0.8362   2.2051   0.1088  -0.0000
 406 H_b :1s     0.0000   1.7602  -1.9423   1.5434   1.2267   1.3440   0.0000
 407 H_b :1s    -0.0000  -5.0639  -1.8094   1.7464   3.0667   5.0822  -0.0000
 408 H_b :1s    -0.0000  -1.0320   9.2874 -33.8871 -56.8392  -2.6656  -0.0000
 409 H_b :1s    -0.0000   0.2122  -1.0330 -12.2408  -1.4123  -0.0699  -0.0000
 417 H_b :2py   -0.0000   0.0009  -0.0008   0.0154   0.0315   0.0090  -0.0000
 418 H_b :2pz    0.0000   0.0052  -0.0022  -0.0047  -0.0239  -0.0070   0.0000
 419 H_b :2px    0.1584   0.0000  -0.0000   0.0000  -0.0000   0.0000  -0.4568
 420 H_b :2py   -0.0000   0.0393  -0.1961   0.2912   0.1856  -0.2720  -0.0000
 421 H_b :2pz   -0.0000   0.1786   0.1821   0.0361  -0.5450  -0.3215  -0.0000
 422 H_b :2px    0.3257   0.0000  -0.0000   0.0000  -0.0000   0.0000  -1.4898
 423 H_b :2py    0.0000   0.3446  -0.9356   1.3266   0.6244  -0.6941   0.0000
 424 H_b :2pz   -0.0000   0.1736   0.8140   0.4847  -1.5510  -0.8779  -0.0000
 425 H_b :2px   -0.1840   0.0000  -0.0000   0.0000  -0.0000   0.0000  -3.9895
 426 H_b :2py   -0.0000  -1.0907  -1.3812   1.9990   2.0358  -2.1159  -0.0000
 427 H_b :2pz    0.0000   1.8391   1.2425   1.1688  -2.6880  -2.0609   0.0000
 428 H_b :2px   -1.0624   0.0000  -0.0000   0.0000  -0.0000   0.0000  -5.1703
 429 H_b :2py   -0.0000  -0.5469   0.4462  -3.8104  -9.9219  -4.2090  -0.0000
 430 H_b :2pz    0.0000   1.2387  -0.3616   2.7089  -2.7554  -0.9143   0.0000
 441 H_b :3d2-   0.0290   0.0000  -0.0000   0.0000  -0.0000   0.0000  -0.1035
 442 H_b :3d1-  -0.0000   0.0209   0.0451  -0.0248  -0.1025  -0.0283  -0.0000
 443 H_b :3d0    0.0000  -0.0377  -0.0069  -0.0407   0.0453   0.1130   0.0000
 444 H_b :3d1+  -0.0178  -0.0000   0.0000  -0.0000   0.0000  -0.0000   0.0664
 445 H_b :3d2+  -0.0000  -0.0005   0.0254  -0.0246   0.0197   0.0780  -0.0000
 446 H_b :3d2-   0.0506   0.0000  -0.0000   0.0000  -0.0000   0.0000  -0.3396
 447 H_b :3d1-  -0.0000   0.0259   0.1349  -0.0172  -0.2659  -0.0810  -0.0000
 448 H_b :3d0    0.0000  -0.0846  -0.0251  -0.1255   0.0742   0.2712   0.0000
 449 H_b :3d1+  -0.0049  -0.0000   0.0000  -0.0000   0.0000  -0.0000   0.1240
 450 H_b :3d2+  -0.0000   0.0112   0.0848  -0.0391   0.1407   0.2430  -0.0000
 451 H_b :3d2-  -0.0459   0.0000  -0.0000   0.0000  -0.0000   0.0000  -0.6422
 452 H_b :3d1-   0.0000   0.1432   0.0678  -0.0861  -0.6970  -0.1092   0.0000
 453 H_b :3d0    0.0000  -0.0692  -0.0417  -0.1000   0.0853   0.4412   0.0000
 454 H_b :3d1+   0.1798  -0.0000   0.0000  -0.0000   0.0000  -0.0000  -0.0467
 455 H_b :3d2+  -0.0000   0.2147   0.0003   0.1154   0.3249   0.6251  -0.0000
 456 H_b :3d2-  -0.1475   0.0000  -0.0000   0.0000  -0.0000   0.0000  -1.1991
 457 H_b :3d1-   0.0000   0.1805   0.1617   0.1613  -0.7951  -0.1615   0.0000
 458 H_b :3d0    0.0000  -0.1647  -0.0293  -0.1552   0.3274   0.7013   0.0000
 459 H_b :3d1+   0.2384  -0.0000   0.0000  -0.0000   0.0000  -0.0000   0.0818
 460 H_b :3d2+  -0.0000   0.1897   0.0333   0.0610   0.5205   0.9785  -0.0000
 475 H_b :4f3-  -0.0000   0.0046   0.0045   0.0040   0.0264   0.0396  -0.0000
 476 H_b :4f2-  -0.0046  -0.0000   0.0000  -0.0000   0.0000  -0.0000   0.0419
 477 H_b :4f1-   0.0000  -0.0164  -0.0095  -0.0065   0.0405   0.0557   0.0000
 478 H_b :4f0   -0.0000   0.0085  -0.0039   0.0139   0.0162  -0.0319  -0.0000
 480 H_b :4f2+   0.0000  -0.0065  -0.0117   0.0020   0.0122  -0.0099   0.0000
 481 H_b :4f3+  -0.0061  -0.0000   0.0000  -0.0000   0.0000  -0.0000   0.0445
 482 H_b :4f3-  -0.0000   0.0257  -0.0260   0.0539   0.0828   0.0637  -0.0000
 483 H_b :4f2-   0.0235  -0.0000   0.0000  -0.0000   0.0000  -0.0000   0.0365
 484 H_b :4f1-   0.0000  -0.0223   0.0068   0.0225   0.0571   0.0538   0.0000
 485 H_b :4f0   -0.0000   0.0045   0.0149  -0.0260   0.0338  -0.0498  -0.0000
 486 H_b :4f1+  -0.0138   0.0000  -0.0000   0.0000  -0.0000   0.0000   0.0252
 487 H_b :4f2+   0.0000  -0.0260   0.0215  -0.0383  -0.0229  -0.0359   0.0000
 488 H_b :4f3+   0.0132  -0.0000   0.0000  -0.0000   0.0000  -0.0000   0.0497
 489 H_b :4f3-  -0.0000   0.0255  -0.0168   0.0455   0.1710   0.1556  -0.0000
 490 H_b :4f2-   0.0442  -0.0000   0.0000  -0.0000   0.0000  -0.0000   0.0068
 491 H_b :4f1-   0.0000  -0.0168   0.0033   0.0537   0.1600   0.1307   0.0000
 492 H_b :4f0   -0.0000   0.0558   0.0168  -0.0162   0.0447  -0.0157  -0.0000
 493 H_b :4f1+  -0.0420   0.0000  -0.0000   0.0000  -0.0000   0.0000   0.0749
 494 H_b :4f2+   0.0000   0.0347   0.0326  -0.0840  -0.0212  -0.0234   0.0000
 495 H_b :4f3+   0.0364   0.0000  -0.0000   0.0000  -0.0000   0.0000   0.1690
 515 H_b :5g3-   0.0000  -0.0035   0.0109  -0.0075  -0.0058  -0.0054   0.0000
 517 H_b :5g1-  -0.0000   0.0014   0.0045  -0.0114  -0.0063  -0.0023  -0.0000
 523 H_b :5g4-   0.0040  -0.0000   0.0000  -0.0000   0.0000  -0.0000   0.0294
 524 H_b :5g3-   0.0000   0.0220  -0.0001  -0.0183  -0.0166   0.0001   0.0000
 525 H_b :5g2-  -0.0033   0.0000  -0.0000   0.0000  -0.0000   0.0000  -0.0225
 526 H_b :5g1-  -0.0000   0.0197   0.0006  -0.0136  -0.0316  -0.0035  -0.0000
 528 H_b :5g1+   0.0068   0.0000  -0.0000   0.0000  -0.0000   0.0000  -0.0194
 530 H_b :5g3+   0.0122   0.0000  -0.0000   0.0000  -0.0000   0.0000  -0.0093
 531 H_b :5g4+  -0.0000   0.0164  -0.0142   0.0096  -0.0174   0.0012  -0.0000

    Orbital        15
   4 O_a :1s     0.0269
   5 O_a :1s    -0.5738
   6 O_a :1s     0.6930
   7 O_a :1s    11.1300
   8 O_a :1s     4.2913
   9 O_a :1s   -19.2096
  12 O_a :2pz    0.0407
  18 O_a :2pz   -0.1028
  21 O_a :2pz    0.4411
  24 O_a :2pz    3.1196
  27 O_a :2pz    6.7716
  30 O_a :2pz    6.5613
  33 O_a :2pz    2.3227
  48 O_a :3d2+   0.0191
  51 O_a :3d0    0.1231
  53 O_a :3d2+  -0.1212
  56 O_a :3d0    0.2502
  58 O_a :3d2+  -0.6276
  61 O_a :3d0    0.3258
  63 O_a :3d2+  -1.4803
  66 O_a :3d0    0.6347
  68 O_a :3d2+  -0.7139
  88 O_a :4f2+  -0.0454
  93 O_a :4f0   -0.0434
  95 O_a :4f2+  -0.1648
 100 O_a :4f0    0.0169
 107 O_a :4f0   -0.1240
 109 O_a :4f2+  -0.3280
 133 O_a :5g0   -0.0192
 135 O_a :5g2+  -0.0316
 142 O_a :5g0    0.0160
 144 O_a :5g2+   0.0175
 151 O_a :5g0    0.0552
 153 O_a :5g2+   0.0763
 155 O_a :5g4+  -0.0149
 194 O_a :6h0    0.0151
 196 O_a :6h2+   0.0155
 239 H_a :1s     0.0188
 240 H_a :1s     0.0127
 241 H_a :1s    -0.3753
 242 H_a :1s    -2.2972
 243 H_a :1s    -8.8556
 244 H_a :1s    -0.3734
 245 H_a :1s     9.2344
 246 H_a :1s    -0.2025
 254 H_a :2py    0.0504
 255 H_a :2pz    0.0386
 257 H_a :2py    0.3469
 258 H_a :2pz    0.1259
 260 H_a :2py    1.0658
 261 H_a :2pz    0.4803
 263 H_a :2py   -1.9365
 264 H_a :2pz   -2.6533
 266 H_a :2py   -3.7445
 267 H_a :2pz   -4.8099
 280 H_a :3d0    0.0333
 282 H_a :3d2+   0.0304
 284 H_a :3d1-   0.1469
 285 H_a :3d0    0.0774
 289 H_a :3d1-   0.6193
 290 H_a :3d0    0.1515
 292 H_a :3d2+  -0.2744
 294 H_a :3d1-   0.6864
 295 H_a :3d0    0.1203
 297 H_a :3d2+  -0.4456
 314 H_a :4f1-  -0.0311
 317 H_a :4f2+   0.0261
 319 H_a :4f3-   0.0536
 321 H_a :4f1-  -0.0650
 322 H_a :4f0    0.0391
 324 H_a :4f2+   0.0889
 326 H_a :4f3-   0.0256
 331 H_a :4f2+   0.0383
 361 H_a :5g3-   0.0211
 364 H_a :5g0    0.0234
 366 H_a :5g2+   0.0268
 393 H_a :6h3-  -0.0134
 402 H_b :1s     0.0188
 403 H_b :1s     0.0127
 404 H_b :1s    -0.3753
 405 H_b :1s    -2.2972
 406 H_b :1s    -8.8556
 407 H_b :1s    -0.3734
 408 H_b :1s     9.2344
 409 H_b :1s    -0.2025
 417 H_b :2py   -0.0504
 418 H_b :2pz    0.0386
 420 H_b :2py   -0.3469
 421 H_b :2pz    0.1259
 423 H_b :2py   -1.0658
 424 H_b :2pz    0.4803
 426 H_b :2py    1.9365
 427 H_b :2pz   -2.6533
 429 H_b :2py    3.7445
 430 H_b :2pz   -4.8099
 443 H_b :3d0    0.0333
 445 H_b :3d2+   0.0304
 447 H_b :3d1-  -0.1469
 448 H_b :3d0    0.0774
 452 H_b :3d1-  -0.6193
 453 H_b :3d0    0.1515
 455 H_b :3d2+  -0.2744
 457 H_b :3d1-  -0.6864
 458 H_b :3d0    0.1203
 460 H_b :3d2+  -0.4456
 477 H_b :4f1-   0.0311
 480 H_b :4f2+   0.0261
 482 H_b :4f3-  -0.0536
 484 H_b :4f1-   0.0650
 485 H_b :4f0    0.0391
 487 H_b :4f2+   0.0889
 489 H_b :4f3-  -0.0256
 494 H_b :4f2+   0.0383
 524 H_b :5g3-  -0.0211
 527 H_b :5g0    0.0234
 529 H_b :5g2+   0.0268
 556 H_b :6h3-   0.0134

  Total CPU  time used in SIRIUS : 15 minutes  2 seconds
  Total wall time used in SIRIUS : 15 minutes 11 seconds

 
     Date and time (Linux)  : Wed Nov 26 20:00:13 2025
     Host name              : xm045                                   

 NOTE:    1 warnings have been issued.
 Check output, result, and error files for "WARNING".


                     .---------------------------------------.
                     | End of Wave Function Section (SIRIUS) |
                     `---------------------------------------'



 Changes of defaults for WALK:
 -----------------------------


 Walk type: Numerical differentiation                 

Maximum number of geometry steps reset in numerical differentiation to    19




        *****************************************************************
        ******** Output from **START input processing for ABACUS ********
        *****************************************************************



 The following molecular properties will be calculated in this run:
 ------------------------------------------------------------------

 Default print level:        0

      Geometry optimization
      Direct calculation - no two-electron integrals written or read.
      Two-electron integrals will be calculated in parallel
      Vibrational Raman intensities
      Natural orbital connection is used
      for perturbation dependent basis sets.
      Linear response properties


 Changes of defaults for *ABALNR:
 --------------------------------

 Number of frequencies          :   6
 Frequencies                    :  0.000000  0.020000  0.040000  0.060000  0.080000
                                   0.100000
 Print level                    :   0
 Lin Resp convergence threshold :  1.00D-07
 Max. Lin Resp iterations       :  60

 Center of mass dipole origin  :    0.000000   -0.000000   -0.095530

 Center of mass gauge origin   :    0.000000   -0.000000   -0.095530


 Changes of defaults for WALK:
 -----------------------------


 Walk type: Numerical differentiation                 

Maximum number of geometry steps reset in numerical differentiation to    19




                 .------------------------------------------------.
                 | Starting in Static Property Section (ABACUS) - |
                 `------------------------------------------------'


 
     Date and time (Linux)  : Wed Nov 26 20:00:13 2025
     Host name              : xm045                                   

 Skip of TROINV is ignored because all GD vectors needed.



     ***********************************************************************
     ****************** Solving Linear Response Equations ******************
     ***********************************************************************

  Time used in LNRABA     is     33 minutes 15 seconds


   ***************************************************************************
   ************************ FINAL RESULTS from ABACUS ************************
   ***************************************************************************


 
     Date and time (Linux)  : Wed Nov 26 20:33:48 2025
     Host name              : xm045                                   


                             Molecular geometry (au)
                             -----------------------

 O_a        0.0000000000           -0.0000000244           -0.2146462797
 H_a       -0.0000000000            1.4213122089            0.8497012867
 H_b        0.0000000000           -1.4213122772            0.8497012130





                        Molecular wave function and energy
                        ----------------------------------

     Spatial symmetry   1 ( A   )
     Spin multiplicity  1
     2 * M_S            0
     State number       1
     Total charge       0

     Total energy        -76.0681535748 au (Hartrees)
                         -2069.91975307 eV
                           -199716.9064 kJ/mol
                            -47733.4862 kcal/mol


                   Scalar Breit-Pauli relativistic corrections
                   -------------------------------------------

     Darwin correction:                          0.2062151213 au
     Mass-velocity correction:                  -0.2580081608 au

     Total relativistic correction:             -0.0517930396 au ( 0.0681%)
     Non-relativistic + relativistic energy:   -76.1199466144 au



      (Note that these corrections are NOT included in the results below.)


                                  Dipole moment
                                  -------------

                 au               Debye          C m (/(10**-30)
              0.761545           1.935653           6.456645


                             Dipole moment components
                             ------------------------

                 au               Debye          C m (/(10**-30)

      x      0.00000000         0.00000000         0.00000000
      y     -0.00000001        -0.00000002        -0.00000008
      z      0.76154468         1.93565337         6.45664464


   Units:   1 a.u. =   2.54175 Debye 
            1 a.u. =   8.47835 (10**-30) C m (SI)




    ++++++++++++++++++++++++++++++++++++++++++++++++++++++++++++++++++++++++++
    ++++++++++++++++++ Frequency dependent polarizabilities ++++++++++++++++++
    ++++++++++++++++++++++++++++++++++++++++++++++++++++++++++++++++++++++++++


          Polarizability tensor for frequency     0.000000 au
          ----------------------------------------------------
                            Ex             Ey             Ez

                Ex    7.826469     -5.5295211E-16 -1.0779732E-15
                Ey  -5.5271457E-16   8.872348      7.8048197E-08
                Ez  -1.6541086E-15  8.4859940E-08   8.288562    

Isotropic polarizability:   8.329126    

          Polarizability tensor for frequency     0.020000 au
          ----------------------------------------------------
                            Ex             Ey             Ez

                Ex    7.836980     -5.5528618E-16 -1.0828279E-15
                Ey  -5.5501839E-16   8.880155      7.8162603E-08
                Ez  -1.6622512E-15  8.5013067E-08   8.297394    

Isotropic polarizability:   8.338177    

          Polarizability tensor for frequency     0.040000 au
          ----------------------------------------------------
                            Ex             Ey             Ez

                Ex    7.868842     -5.6240032E-16 -1.0976915E-15
                Ey  -5.6203304E-16   8.903685      7.8507644E-08
                Ez  -1.6870871E-15  8.5475730E-08   8.324071    

Isotropic polarizability:   8.365532    

          Polarizability tensor for frequency     0.060000 au
          ----------------------------------------------------
                            Ex             Ey             Ez

                Ex    7.923070     -5.7464380E-16 -1.1235065E-15
                Ey  -5.7407877E-16   8.943265      7.9088863E-08
                Ez  -1.7298877E-15  8.6257970E-08   8.369141    

Isotropic polarizability:   8.411825    

          Polarizability tensor for frequency     0.080000 au
          ----------------------------------------------------
                            Ex             Ey             Ez

                Ex    8.001474     -5.9264670E-16 -1.1619976E-15
                Ey  -5.9172658E-16   8.999459      7.9915779E-08
                Ez  -1.7929335E-15  8.7377198E-08   8.433561    

Isotropic polarizability:   8.478164    

          Polarizability tensor for frequency     0.100000 au
          ----------------------------------------------------
                            Ex             Ey             Ez

                Ex    8.106869     -6.1740399E-16 -1.2159438E-15
                Ey  -6.1586128E-16   9.073084      8.1002334E-08
                Ez  -1.8797906E-15  8.8859287E-08   8.518756    

Isotropic polarizability:   8.566236    


   Interatomic separations (in Angstrom):
   --------------------------------------

            O_a         H_a         H_b   
            ------      ------      ------
 O_a   :    0.000000
 H_a   :    0.939638    0.000000
 H_b   :    0.939638    1.504252    0.000000


  Max    interatomic separation is    1.5043 Angstrom (    2.8426 Bohr)
  between atoms    3 and    2, "H_b   " and "H_a   ".

  Min HX interatomic separation is    0.9396 Angstrom (    1.7757 Bohr)


  Bond distances (Angstrom):
  --------------------------

                  atom 1     atom 2       distance
                  ------     ------       --------
  bond distance:  H_a        O_a          0.939638
  bond distance:  H_b        O_a          0.939638


  Bond angles (degrees):
  ----------------------

                  atom 1     atom 2     atom 3         angle
                  ------     ------     ------         -----
  bond angle:     H_a        O_a        H_b          106.345



 Largest deviation from orthonormality of OMOs: 7.42095E-11
 - found for element  170 217


     ************************************************************************
     ****************** ABACUS - NUMERICAL DIFFERENTIATION ******************
     ************************************************************************

 Energy at reference geometry:   -76.0681535748


  Analytical gradient at reference geometry
  -----------------------------------------


     Zero matrix.
    ==== End of matrix output ====


  Analytical Hessian at reference geometry
  ----------------------------------------


     Zero matrix.
    ==== End of matrix output ====


    *************************************************************************
    ************** ABACUS - Numerical differentiation for VROA **************
    *************************************************************************



 CPU time statistics for ABACUS
 ------------------------------

 LNRABA     00:33:15     100 %

 TOTAL      00:33:23     100 %


  Total CPU  time used in ABACUS: 33 minutes 23 seconds
  Total wall time used in ABACUS: 33 minutes 40 seconds


                   .-------------------------------------------.
                   | End of Static Property Section (ABACUS) - |
                   `-------------------------------------------'


@  Geometry walk step no.   0:  Molecular energy =    -76.068154   Molecular gradient =  0.000000


     @@---------- Geometry walk iteration number:    1 ----------




 **************************************************************************************
 ****************** Output of molecule and basis set info suppressed ******************
 **************************************************************************************



                     .---------------------------------------.
                     | Starting in Integral Section (HERMIT) |
                     `---------------------------------------'



                      Nuclear contribution to dipole moments
                      --------------------------------------

                 au               Debye          C m (/(10**-30)

      x      0.00080000         0.00203340         0.00678268
      y     -0.00000026        -0.00000067        -0.00000223
      z     -0.01776774        -0.04516108        -0.15064116


  Time used in ONEDRV     is       0.38 seconds
  Time used in POPOVLP    is       0.16 seconds
  Time used in R2         is       0.11 seconds
  Time used in R4         is       0.14 seconds
  Time used in DIPLEN     is       0.20 seconds
  Time used in QUADRUP    is       0.42 seconds
  Time used in KINENE     is       0.12 seconds
  Time used in GABGEN     is      40.73 seconds
  Total CPU  time used in HERMIT:  42.35 seconds
  Total wall time used in HERMIT:  42.80 seconds


                        .----------------------------------.
                        | End of Integral Section (HERMIT) |
                        `----------------------------------'



                   .--------------------------------------------.
                   | Starting in Wave Function Section (SIRIUS) |
                   `--------------------------------------------'


     INFO: Information regarding orbitals read from file:
         2 basis functions are deleted
* Read MO coefficients from SIRIUS.RST with label "NEWORB  " and header info: 26Nov25  (HFOPT) 

 **********************************************************************
 *SIRIUS* a direct, restricted step, second order MCSCF program       *
 **********************************************************************

 (Wave function specification suppressed here, see output above for initial geometry.)


 ***********************************************
 ***** DIIS acceleration of SCF iterations *****
 ***********************************************

 C1-DIIS algorithm; max error vectors =    8

 Iter      Total energy        Error norm    Delta(E)  DIIS dim.
 -----------------------------------------------------------------------------
   1  Screening settings (-IFTHRS, JTDIIS, DIFDEN, times)  -16    1    T  1.95D+02  1.97D+02
@  1    -76.0557450910        1.45883D+00    1.24D-02    1
      Virial theorem: -V/T =      1.999697
@    MULPOP   O_a    -0.52; H_a     0.26; H_b     0.26; 
 -----------------------------------------------------------------------------
   2  Screening settings (-IFTHRS, JTDIIS, DIFDEN, times)  -10    2    F  1.91D+02  1.92D+02
@  2    -76.0681435365        2.87310D-02   -1.24D-02    2
      Virial theorem: -V/T =      2.000002
@    MULPOP   O_a    -0.52; H_a     0.26; H_b     0.26; 
 -----------------------------------------------------------------------------
   3  Screening settings (-IFTHRS, JTDIIS, DIFDEN, times)  -12    3    F  1.91D+02  1.93D+02
@  3    -76.0681535622        5.86366D-04   -1.00D-05    3
      Virial theorem: -V/T =      2.000008
@    MULPOP   O_a    -0.52; H_a     0.26; H_b     0.26; 
 -----------------------------------------------------------------------------
   4  Screening settings (-IFTHRS, JTDIIS, DIFDEN, times)  -12    4    T  1.91D+02  1.93D+02
@  4    -76.0681535743        1.09648D-04   -1.21D-08    4
      Virial theorem: -V/T =      2.000003
@    MULPOP   O_a    -0.52; H_a     0.26; H_b     0.26; 
 -----------------------------------------------------------------------------
   5  Screening settings (-IFTHRS, JTDIIS, DIFDEN, times)  -16    5    F  1.93D+02  1.95D+02
@  5    -76.0681535748        4.42185D-05   -4.82D-10    5
      Virial theorem: -V/T =      2.000006
@    MULPOP   O_a    -0.52; H_a     0.26; H_b     0.26; 
 -----------------------------------------------------------------------------
[...]
       6       0.00000164    -4.03395580     0.00000433     0.00001049     2.01701903
       7      -0.43247614     0.00002183     0.00000090     0.21629309    -0.00002492
       8       0.00000116    -4.03399252     0.00000557     0.00001085     2.01705614
       9       0.00006059    -0.00012796    -4.28895143    -0.00001057     2.34942543

               Column   6     Column   7     Column   8     Column   9
       1       0.58907053    -0.00013215    -1.17404034     0.58905253
       2       0.00000064    -0.36679492    -0.00000497    -0.00000095
       3       0.00000046     0.21617645     0.00002562    -0.00000039
       4       0.00000065    -0.36707829    -0.00000496    -0.00000091
       5       2.57375465    -0.00001058    -4.47958061     2.57374791
       6       1.71539261     0.00000914     2.01698815    -1.71539088
       7       0.00000067     0.21630333     0.00002510    -0.00000060
       8       1.71550076     0.00000859     2.01702397    -1.71550055
       9       2.14443204    -0.00001065    -2.34938433     2.14445486
    ==== End of matrix output ====
  frequency: 0.0400

               Column   1     Column   2     Column   3     Column   4     Column   5
       1      -0.00018605     0.00035765    -1.18669821    -0.00005882     1.18273154
       2       0.00000272     0.00000253     0.00000030     0.36392760     0.00000046
       3      -0.42745072     0.00002114     0.00000046     0.21372398    -0.00002637
       4       0.00000271     0.00000253     0.00000030     0.36421678     0.00000046
       5       0.00000953    -0.00002988    -5.17971637    -0.00001724     4.50346409
       6       0.00000165    -4.06524475     0.00000436     0.00001054     2.03266392
       7      -0.42761266     0.00002208     0.00000090     0.21386131    -0.00002517
       8       0.00000116    -4.06528359     0.00000561     0.00001090     2.03269871
       9       0.00006110    -0.00012903    -4.30809718    -0.00001066     2.36883606

               Column   6     Column   7     Column   8     Column   9
       1       0.59329700    -0.00013347    -1.18286379     0.59327879
       2       0.00000065    -0.36385371    -0.00000502    -0.00000095
       3       0.00000046     0.21373365     0.00002583    -0.00000039
       4       0.00000066    -0.36414578    -0.00000501    -0.00000091
       5       2.58989364    -0.00001067    -4.50344968     2.58988684
       6       1.72599977     0.00000920     2.03263284    -1.72599804
       7       0.00000067     0.21387166     0.00002529    -0.00000060
       8       1.72610510     0.00000865     2.03266643    -1.72610508
       9       2.15400464    -0.00001071    -2.36879466     2.15402759
    ==== End of matrix output ====
  frequency: 0.0600

               Column   1     Column   2     Column   3     Column   4     Column   5
       1      -0.00018904     0.00036367    -1.20146351    -0.00005982     1.19801616
       2       0.00000278     0.00000257     0.00000030     0.35875779     0.00000048
       3      -0.41883098     0.00002151     0.00000046     0.20940973    -0.00002687
       4       0.00000276     0.00000257     0.00000030     0.35906277     0.00000048
       5       0.00000970    -0.00003016    -5.23427899    -0.00001741     4.54378317
       6       0.00000165    -4.11839769     0.00000442     0.00001064     2.05924111
       7      -0.41902509     0.00002253     0.00000091     0.20956751    -0.00002558
       8       0.00000115    -4.11844034     0.00000568     0.00001098     2.05927169
       9       0.00006196    -0.00013085    -4.34045366    -0.00001081     2.40195749

               Column   6     Column   7     Column   8     Column   9
       1       0.60067865    -0.00013573    -1.19815055     0.60066007
       2       0.00000065    -0.35868264    -0.00000510    -0.00000096
       3       0.00000046     0.20941966     0.00002619    -0.00000039
       4       0.00000066    -0.35899057    -0.00000509    -0.00000092
       5       2.61717511    -0.00001083    -4.54376863     2.61716819
       6       1.74396820     0.00000930     2.05920969    -1.74396648
       7       0.00000067     0.20957805     0.00002560    -0.00000060
       8       1.74406817     0.00000875     2.05923920    -1.74406846
       9       2.17018242    -0.00001082    -2.40191556     2.17020560
    ==== End of matrix output ====
  frequency: 0.0800

               Column   1     Column   2     Column   3     Column   4     Column   5
       1      -0.00019340     0.00037247    -1.22368789    -0.00006129     1.22074108
       2       0.00000286     0.00000263     0.00000030     0.35091621     0.00000050
       3      -0.40566662     0.00002204     0.00000046     0.20282069    -0.00002759
       4       0.00000284     0.00000263     0.00000031     0.35124650     0.00000050
       5       0.00000994    -0.00003056    -5.31231758    -0.00001766     4.60138735
       6       0.00000166    -4.19500045     0.00000449     0.00001077     2.09754353
       7      -0.40591265     0.00002318     0.00000092     0.20301140    -0.00002619
       8       0.00000114    -4.19504901     0.00000578     0.00001109     2.09756739
       9       0.00006321    -0.00013350    -4.38672123    -0.00001102     2.45002066

               Column   6     Column   7     Column   8     Column   9
       1       0.61178938    -0.00013904    -1.22087860     0.61177024
       2       0.00000066    -0.35083919    -0.00000522    -0.00000097
       3       0.00000046     0.20283102     0.00002672    -0.00000039
       4       0.00000067    -0.35117253    -0.00000521    -0.00000093
       5       2.65619463    -0.00001105    -4.60137260     2.65618754
       6       1.76975310     0.00000945     2.09751162    -1.76975138
       7       0.00000067     0.20302222     0.00002606    -0.00000060
       8       1.76984394     0.00000890     2.09753462    -1.76984473
       9       2.19331554    -0.00001097    -2.44997797     2.19333905
    ==== End of matrix output ====
  frequency: 0.1000

               Column   1     Column   2     Column   3     Column   4     Column   5
       1      -0.00019936     0.00038453    -1.25529551    -0.00006330     1.25252377
       2       0.00000297     0.00000272     0.00000031     0.33969581     0.00000053
       3      -0.38664977     0.00002277     0.00000046     0.19330198    -0.00002857
       4       0.00000295     0.00000271     0.00000031     0.34006504     0.00000053
       5       0.00001025    -0.00003108    -5.41558734    -0.00001798     4.67750774
       6       0.00000167    -4.29744233     0.00000460     0.00001096     2.14876588
       7      -0.38697642     0.00002408     0.00000093     0.19354374    -0.00002701
       8       0.00000113    -4.29749961     0.00000591     0.00001124     2.14877951
       9       0.00006489    -0.00013706    -4.44794457    -0.00001130     2.51491322

               Column   6     Column   7     Column   8     Column   9
       1       0.62759119    -0.00014357    -1.25266556     0.62757128
       2       0.00000067    -0.33961623    -0.00000538    -0.00000099
       3       0.00000046     0.19331289     0.00002743    -0.00000039
       4       0.00000068    -0.33998865    -0.00000537    -0.00000094
       5       2.70782980    -0.00001135    -4.67749272     2.70782249
       6       1.80403543     0.00000965     2.14873333    -1.80403372
       7       0.00000067     0.19355496     0.00002666    -0.00000060
       8       1.80411134     0.00000911     2.14874637    -1.80411287
       9       2.22392632    -0.00001116    -2.51486952     2.22395028
    ==== End of matrix output ====


  Normal coordinates
  ------------------


               Column   1     Column   2     Column   3
       2      -0.00160072    -0.00000000    -0.00000000
       3      -0.00000000     0.00113742    -0.00159519
       5       0.01270229    -0.01343232    -0.00957772
       6       0.00951209    -0.00902587     0.01265840
       8       0.01270227     0.01343235     0.00957772
       9      -0.00951207    -0.00902588     0.01265840
    ==== End of matrix output ====


  Polarizability tensor normal coord. gradient
  --------------------------------------------

  frequency: 0.0000

               Column   1     Column   2     Column   3
       1      -0.00000202    -0.04340669    -0.00567930
       2      -0.00000005    -0.00000007    -0.00000006
       3      -0.00000003     0.00000069     0.00000049
       4      -0.00000005    -0.00000007    -0.00000006
       5       0.00000043    -0.17233728    -0.01243907
       6       0.09011770    -0.00000035    -0.00000027
       7      -0.00000002     0.00000067     0.00000048
       8       0.09012079    -0.00000036    -0.00000031
       9       0.00000059    -0.10646909     0.01616042
    ==== End of matrix output ====
  frequency: 0.0200

               Column   1     Column   2     Column   3
       1      -0.00000202    -0.04351220    -0.00569533
       2      -0.00000005    -0.00000007    -0.00000006
       3      -0.00000003     0.00000069     0.00000050
       4      -0.00000005    -0.00000007    -0.00000006
       5       0.00000043    -0.17265819    -0.01243818
       6       0.09033219    -0.00000035    -0.00000027
       7      -0.00000002     0.00000067     0.00000048
       8       0.09033525    -0.00000036    -0.00000031
       9       0.00000059    -0.10670530     0.01612825
    ==== End of matrix output ====
  frequency: 0.0400

               Column   1     Column   2     Column   3
       1      -0.00000204    -0.04383513    -0.00574385
       2      -0.00000005    -0.00000007    -0.00000006
       3      -0.00000003     0.00000070     0.00000050
       4      -0.00000005    -0.00000007    -0.00000006
       5       0.00000044    -0.17362747    -0.01243533
       6       0.09098152    -0.00000036    -0.00000028
       7      -0.00000002     0.00000068     0.00000048
       8       0.09098447    -0.00000035    -0.00000031
       9       0.00000060    -0.10742134     0.01602933
    ==== End of matrix output ====
  frequency: 0.0600

               Column   1     Column   2     Column   3
       1      -0.00000208    -0.04439582    -0.00582622
       2      -0.00000005    -0.00000007    -0.00000006
       3      -0.00000003     0.00000071     0.00000051
       4      -0.00000005    -0.00000007    -0.00000006
       5       0.00000044    -0.17526517    -0.01242994
       6       0.09208361    -0.00000036    -0.00000028
       7      -0.00000002     0.00000069     0.00000049
       8       0.09208637    -0.00000035    -0.00000032
       9       0.00000061    -0.10863997     0.01585607
    ==== End of matrix output ====
  frequency: 0.0800

               Column   1     Column   2     Column   3
       1      -0.00000212    -0.04523220    -0.00594483
       2      -0.00000005    -0.00000007    -0.00000006
       3      -0.00000004     0.00000073     0.00000052
       4      -0.00000005    -0.00000007    -0.00000006
       5       0.00000045    -0.17760581    -0.01242104
       6       0.09366982    -0.00000036    -0.00000028
       7      -0.00000003     0.00000070     0.00000050
       8       0.09367225    -0.00000035    -0.00000033
       9       0.00000062    -0.11040138     0.01559487
    ==== End of matrix output ====
  frequency: 0.1000

               Column   1     Column   2     Column   3
       1      -0.00000219    -0.04640729    -0.00610322
       2      -0.00000005    -0.00000008    -0.00000006
       3      -0.00000004     0.00000075     0.00000054
       4      -0.00000005    -0.00000008    -0.00000006
       5       0.00000046    -0.18070032    -0.01240718
       6       0.09578727    -0.00000037    -0.00000029
       7      -0.00000003     0.00000072     0.00000051
       8       0.09578917    -0.00000035    -0.00000034
       9       0.00000064    -0.11276691     0.01522447
    ==== End of matrix output ====

     Raman related properties for freq.  0.000000 au  = Infinity nm
     ---------------------------------------------------------------

 Mode    Freq.     Alpha**2   Beta(a)**2   Pol.Int.   Depol.Int.  Dep. Ratio 

    1   4230.23    0.000000    3.482739   13.930957   10.448218    0.750000
    2   4129.51    1.648953    1.782405   81.332525    5.347214    0.065745
    3   1748.10    0.000061    0.095815    0.386000    0.287445    0.744676

 Mode    Freq.   ConverFac(*E13)  BoltzFac

    1   4230.23   -0.000000    1.00000000
    2   4129.51   -0.000000    1.00000000
    3   1748.10   -0.000000    0.99978303

     Raman related properties for freq.  0.020000 au  =  2278.17 nm
     ---------------------------------------------------------------

 Mode    Freq.     Alpha**2   Beta(a)**2   Pol.Int.   Depol.Int.  Dep. Ratio 

    1   4230.23    0.000000    3.499336   13.997346   10.498009    0.750000
    2   4129.51    1.655743    1.788355   81.661838    5.365066    0.065699
    3   1748.10    0.000064    0.095613    0.385327    0.286840    0.744406

 Mode    Freq.   ConverFac(*E13)  BoltzFac

    1   4230.23    0.000000    1.00000000
    2   4129.51    0.000000    1.00000000
    3   1748.10    0.000185    0.99978303

     Raman related properties for freq.  0.040000 au  =  1139.08 nm
     ---------------------------------------------------------------

 Mode    Freq.     Alpha**2   Beta(a)**2   Pol.Int.   Depol.Int.  Dep. Ratio 

    1   4230.23    0.000000    3.549820   14.199281   10.649460    0.750000
    2   4129.51    1.676404    1.806271   82.663254    5.418814    0.065553
    3   1748.10    0.000073    0.094992    0.383271    0.284976    0.743536

 Mode    Freq.   ConverFac(*E13)  BoltzFac

    1   4230.23    0.000781    1.00000000
    2   4129.51    0.000855    1.00000000
    3   1748.10    0.006983    0.99978303

     Raman related properties for freq.  0.060000 au  =   759.39 nm
     ---------------------------------------------------------------

 Mode    Freq.     Alpha**2   Beta(a)**2   Pol.Int.   Depol.Int.  Dep. Ratio 

    1   4230.23    0.000000    3.636333   14.545330   10.908998    0.750000
    2   4129.51    1.711853    1.836326   84.378680    5.508977    0.065289
    3   1748.10    0.000091    0.093902    0.379724    0.281705    0.741868

 Mode    Freq.   ConverFac(*E13)  BoltzFac

    1   4230.23    0.008893    1.00000000
    2   4129.51    0.009421    1.00000000
    3   1748.10    0.044887    0.99978303

     Raman related properties for freq.  0.080000 au  =   569.54 nm
     ---------------------------------------------------------------

 Mode    Freq.     Alpha**2   Beta(a)**2   Pol.Int.   Depol.Int.  Dep. Ratio 

    1   4230.23    0.000000    3.762673   15.050693   11.288020    0.750000
    2   4129.51    1.763741    1.878724   86.883241    5.636172    0.064871
    3   1748.10    0.000122    0.092255    0.374508    0.276765    0.739010

 Mode    Freq.   ConverFac(*E13)  BoltzFac

    1   4230.23    0.039309    1.00000000
    2   4129.51    0.041187    1.00000000
    3   1748.10    0.158782    0.99978303

     Raman related properties for freq.  0.100000 au  =   455.63 nm
     ---------------------------------------------------------------

 Mode    Freq.     Alpha**2   Beta(a)**2   Pol.Int.   Depol.Int.  Dep. Ratio 

    1   4230.23    0.000000    3.934686   15.738744   11.804058    0.750000
    2   4129.51    1.834676    1.933538   90.294564    5.800615    0.064241
    3   1748.10    0.000171    0.089920    0.367397    0.269760    0.734246

 Mode    Freq.   ConverFac(*E13)  BoltzFac

    1   4230.23    0.115429    1.00000000
    2   4129.51    0.120273    1.00000000
    3   1748.10    0.413942    0.99978303

   **** For definitions, see the DALTON manual and references therein. ****



                              Total Molecular Energy
                              ----------------------

             electronic     vibrational           total    energy 

             -76.068154        0.023027      -76.045126    Hartrees
           -16695029.81         5053.92    -16689975.89    cm-1
             -199716.91           60.46      -199656.45    kJ/mol
              -47733.49           14.45       -47719.04    kcal/mol


                          Molecular Partition Functions
                          -----------------------------

 Qtran is evaluated per mol at 1 atm. pressure.
 Qrot does not include symmetry numbers.
 Qvib does not include zero point energies
 (i.e., energy scale has vibrational ground state as zero).


 Temp.(K)  Translational     Rotational    Vibrational      Total

    50.00     3.4600D+04           6.04         1.0000   2.089655D+05
   100.00     1.9573D+05          16.34         1.0000   3.198879D+06
   200.00     1.1072D+06          45.18         1.0000   5.002570D+07
   273.15     2.4136D+06          71.67         1.0001   1.729907D+08
   298.15     3.0043D+06          81.61         1.0002   2.452377D+08
   300.00     3.0511D+06          82.36         1.0002   2.513600D+08
   400.00     6.2633D+06         126.32         1.0019   7.926299D+08
   500.00     1.0942D+07         176.12         1.0066   1.939719D+09
   600.00     1.7260D+07         231.15         1.0154   4.051217D+09
   700.00     2.5375D+07         290.96         1.0287   7.594713D+09
   800.00     3.5431D+07         355.19         1.0462   1.316586D+10
   900.00     4.7562D+07         423.55         1.0678   2.151065D+10
  1000.00     6.1895D+07         495.80         1.0933   3.355140D+10
  1500.00     1.7056D+08         909.42         1.2759   1.979119D+11
  2000.00     3.5013D+08        1399.04         1.5466   7.575855D+11


                                +------------------+
                                ! Polarizabilities !
                                +------------------+


 Vibrational polarizabilities calculated acc. to Rinaldi et al.,
 Chem.Phys.Lett. 128 (1986) 177-181.


                        Vibrational Polarizabilities (au)
                        ---------------------------------

                         Ex          Ey          Ez

            Ex       0.000000   -0.000000   -0.000000
            Ey      -0.000000    0.140555   -0.000000
            Ez      -0.000000   -0.000000    0.880518



                   Vibrational Polarizabilities (angstroms**3)
                   -------------------------------------------

                         Ex          Ey          Ez

            Ex       0.000000   -0.000000   -0.000000
            Ey      -0.000000    0.020828   -0.000000
            Ez      -0.000000   -0.000000    0.130479



                   Vibrational Polarizabilities (angstroms**3)
                   -------------------------------------------

               (Along principal axes of moments of inertia)

                         EA          EB          EC

            EA       0.020828   -0.000000   -0.000000
            EB      -0.000000    0.130479   -0.000000
            EC      -0.000000   -0.000000    0.000000



 Vibrational mean polarization :    0.1274 cm**3 mol**-1
  Time used in VIBCTL     is       0.15 seconds


 CPU time statistics for ABACUS
 ------------------------------

 TWOTEX     00:13:53      23 %
 RHSIDE     00:07:42      13 %
 RESPON     00:11:29      19 %
 LNRABA     00:25:53      44 %
 REST       00:00:20       1 %

 TOTAL      00:59:17     100 %


  Total CPU  time used in ABACUS: 59 minutes 17 seconds
  Total wall time used in ABACUS: 59 minutes 49 seconds


                   .-------------------------------------------.
                   | End of Static Property Section (ABACUS) - |
                   `-------------------------------------------'



 PLTORB knows S,P,D,F,G shells. The basis set contains orbital(s) with higher angular momentum,
 and the writing of MOLPLT file is thus abandoned.

  Total CPU  time used in DALTON:  22 hours 50 minutes 24 seconds
  Total wall time used in DALTON:  23 hours  2 minutes 57 seconds

 
     Date and time (Linux)  : Thu Nov 27 18:47:40 2025
     Host name              : xm045                                   
