

     ************************************************************************
     *************** Dalton - An Electronic Structure Program ***************
     ************************************************************************

    This is output from DALTON release Dalton2020.0 (2020)
         ( Web site: http://daltonprogram.org )

   ----------------------------------------------------------------------------

    NOTE:
     
    Dalton is an experimental code for the evaluation of molecular
    properties using (MC)SCF, DFT, CI, and CC wave functions.
    The authors accept no responsibility for the performance of
    the code or for the correctness of the results.
     
    The code (in whole or part) is provided under a licence and
    is not to be reproduced for further distribution without
    the written permission of the authors or their representatives.
     
    See the home page "http://daltonprogram.org" for further information.
     
    If results obtained with this code are published,
    the appropriate citations would be both of:
     
       K. Aidas, C. Angeli, K. L. Bak, V. Bakken, R. Bast,
       L. Boman, O. Christiansen, R. Cimiraglia, S. Coriani,
       P. Dahle, E. K. Dalskov, U. Ekstroem,
       T. Enevoldsen, J. J. Eriksen, P. Ettenhuber, B. Fernandez,
       L. Ferrighi, H. Fliegl, L. Frediani, K. Hald, A. Halkier,
       C. Haettig, H. Heiberg, T. Helgaker, A. C. Hennum,
       H. Hettema, E. Hjertenaes, S. Hoest, I.-M. Hoeyvik,
       M. F. Iozzi, B. Jansik, H. J. Aa. Jensen, D. Jonsson,
       P. Joergensen, J. Kauczor, S. Kirpekar,
       T. Kjaergaard, W. Klopper, S. Knecht, R. Kobayashi, H. Koch,
       J. Kongsted, A. Krapp, K. Kristensen, A. Ligabue,
       O. B. Lutnaes, J. I. Melo, K. V. Mikkelsen, R. H. Myhre,
       C. Neiss, C. B. Nielsen, P. Norman, J. Olsen,
       J. M. H. Olsen, A. Osted, M. J. Packer, F. Pawlowski,
       T. B. Pedersen, P. F. Provasi, S. Reine, Z. Rinkevicius,
       T. A. Ruden, K. Ruud, V. Rybkin, P. Salek, C. C. M. Samson,
       A. Sanchez de Meras, T. Saue, S. P. A. Sauer,
       B. Schimmelpfennig, K. Sneskov, A. H. Steindal,
       K. O. Sylvester-Hvid, P. R. Taylor, A. M. Teale,
       E. I. Tellgren, D. P. Tew, A. J. Thorvaldsen, L. Thoegersen,
       O. Vahtras, M. A. Watson, D. J. D. Wilson, M. Ziolkowski
       and H. Agren,
       "The Dalton quantum chemistry program system",
       WIREs Comput. Mol. Sci. 2014, 4:269–284 (doi: 10.1002/wcms.1172)
     
    and
     
       Dalton, a molecular electronic structure program,
       Release Dalton2020.0 (2020), see http://daltonprogram.org
   ----------------------------------------------------------------------------

    Authors in alphabetical order (Major contribution(s) in parenthesis):

  Kestutis Aidas,           Vilnius University,           Lithuania   (QM/MM)
  Celestino Angeli,         University of Ferrara,        Italy       (NEVPT2)
  Keld L. Bak,              UNI-C,                        Denmark     (AOSOPPA, non-adiabatic coupling, magnetic properties)
  Vebjoern Bakken,          University of Oslo,           Norway      (DALTON; geometry optimizer, symmetry detection)
  Radovan Bast,             UiT The Arctic U. of Norway,  Norway      (DALTON installation and execution frameworks)
  Pablo Baudin,             University of Valencia,       Spain       (Cholesky excitation energies)
  Linus Boman,              NTNU,                         Norway      (Cholesky decomposition and subsystems)
  Bruno N. Cabral Tenorio,  Technical Univ. of Denmark,   Denmark     (Lanczos-based CC methods)
  Ove Christiansen,         Aarhus University,            Denmark     (CC module)
  Renzo Cimiraglia,         University of Ferrara,        Italy       (NEVPT2)
  Sonia Coriani,            Technical Univ. of Denmark,   Denmark     (CC and RESPONS modules)
  Janusz Cukras,            University of Warsaw,         Poland      (MChD in RESPONS)
  Paal Dahle,               University of Oslo,           Norway      (Parallelization)
  Erik K. Dalskov,          UNI-C,                        Denmark     (SOPPA)
  Thomas Enevoldsen,        Univ. of Southern Denmark,    Denmark     (SOPPA)
  Janus J. Eriksen,         Aarhus University,            Denmark     (Polarizable embedding, TDA)
  Rasmus Faber,             Technical Univ. of Denmark,   Denmark     (Vib.avg. NMR w. SOPPA, parallel AO-SOPPA, CVS-CC and EOMCC)
  Tobias Fahleson,          KTH Stockholm,                Sweden      (Damped cubic response)
  Berta Fernandez,          U. of Santiago de Compostela, Spain       (Doublet spin, ESR in RESPONS)
  Lara Ferrighi,            Aarhus University,            Denmark     (PCM Cubic response)
  Heike Fliegl,             University of Oslo,           Norway      (CCSD(R12))
  Luca Frediani,            UiT The Arctic U. of Norway,  Norway      (PCM)
  Emmanuel Fromager,        Univ. Strasbourg,             France      (MC-srDFT)
  Bin Gao,                  UiT The Arctic U. of Norway,  Norway      (Gen1Int library)
  Andre S. P. Gomes,        CNRS/Universite de Lille,     France      (Frozen density embedding)
  Christof Haettig,         Ruhr-University Bochum,       Germany     (CC module)
  Kasper Hald,              Aarhus University,            Denmark     (CC module)
  Asger Halkier,            Aarhus University,            Denmark     (CC module)
  Frederik Beyer Hansen,    University of Copenhagen,     Denmark     (Parallel AO-SOPPA)
  Erik D. Hedegaard,        Univ. of Southern Denmark,    Denmark     (Polarizable embedding, QM/MM, and MC-srDFT)
  Hanne Heiberg,            University of Oslo,           Norway      (Geometry analysis, selected one-electron integrals)
  Trygve Helgaker,          University of Oslo,           Norway      (DALTON; ABACUS, ERI, DFT modules, London, and much more)
  Alf Christian Hennum,     University of Oslo,           Norway      (Parity violation)
  Hinne Hettema,            University of Auckland,       New Zealand (Quadratic response in RESPONS; SIRIUS supersymmetry)
  Eirik Hjertenaes,         NTNU,                         Norway      (Cholesky decomposition)
  Pi A. B. Haase,           University of Copenhagen,     Denmark     (Triplet AO-SOPPA)
  Maria Francesca Iozzi,    University of Oslo,           Norway      (RPA)
  Christoph Jacob           TU Braunschweig               Germany     (Frozen density embedding)
  Brano Jansik              Technical Univ. of Ostrava    Czech Rep.  (DFT cubic response)
  Hans Joergen Aa. Jensen,  Univ. of Southern Denmark,    Denmark     (DALTON; SIRIUS, RESPONS, ABACUS, MC-srDFT, and much more)
  Dan Jonsson,              UiT The Arctic U. of Norway,  Norway      (Cubic response in RESPONS module)
  Poul Joergensen,          Aarhus University,            Denmark     (RESPONS, ABACUS, and CC modules)
  Maciej Kaminski,          University of Warsaw,         Poland      (CPPh in RESPONS)
  Joanna Kauczor,           Linkoeping University,        Sweden      (Complex polarization propagator (CPP) module)
  Sheela Kirpekar,          Univ. of Southern Denmark,    Denmark     (Mass-velocity & Darwin integrals)
  Erik Kjellgren,           Univ. of Southern Denmark,    Denmark     (MC-srDFT)
  Wim Klopper,              KIT Karlsruhe,                Germany     (R12 code in CC, SIRIUS, and ABACUS modules)
  Stefan Knecht,            ETH Zurich,                   Switzerland (Parallel CI and MCSCF, MC-srDFT)
  Rika Kobayashi,           Australian National Univ.,    Australia   (DIIS in CC, London in MCSCF)
  Henrik Koch,              NTNU,                         Norway      (CC module, Cholesky decomposition)
  Jacob Kongsted,           Univ. of Southern Denmark,    Denmark     (Polarizable embedding, polarizable density embedding, QM/MM)
  Andrea Ligabue,           University of Modena,         Italy       (CTOCD, AOSOPPA)
  Nanna H. List             Univ. of Southern Denmark,    Denmark     (Polarizable embedding)
  Ola B. Lutnaes,           University of Oslo,           Norway      (DFT Hessian)
  Juan I. Melo,             University of Buenos Aires,   Argentina   (LRESC, Relativistic Effects on NMR Shieldings)
  Kurt V. Mikkelsen,        University of Copenhagen,     Denmark     (MC-SCRF and QM/MM)
  Rolf H. Myhre,            NTNU,                         Norway      (Subsystems and CC3)
  Christian Neiss,          Univ. Erlangen-Nuernberg,     Germany     (CCSD(R12))
  Christian B. Nielsen,     University of Copenhagen,     Denmark     (QM/MM)
  Patrick Norman,           KTH Stockholm,                Sweden      (Cubic response and complex frequency response in RESPONS)
  Jeppe Olsen,              Aarhus University,            Denmark     (SIRIUS CI/density modules)
  Jogvan Magnus H. Olsen,   Aarhus University,            Denmark     (Polarizable embedding and polarizable density embedding)
  Anders Osted,             Copenhagen University,        Denmark     (QM/MM)
  Martin J. Packer,         University of Sheffield,      UK          (SOPPA)
  Filip Pawlowski,          Kazimierz Wielki University,  Poland      (CC3)
  Morten N. Pedersen,       Univ. of Southern Denmark,    Denmark     (Polarizable embedding)
  Thomas B. Pedersen,       University of Oslo,           Norway      (Cholesky decomposition)
  Patricio F. Provasi,      University of Northeastern,   Argentina   (Analysis of coupling constants in localized orbitals)
  Peter Reinholdt,          Univ. of Southern Denmark,    Denmark     (Polarizable embedding and polarizable density embedding)
  Zilvinas Rinkevicius,     KTH Stockholm,                Sweden      (open-shell DFT, ESR)
  Elias Rudberg,            KTH Stockholm,                Sweden      (DFT grid and basis info)
  Torgeir A. Ruden,         University of Oslo,           Norway      (Numerical derivatives in ABACUS)
  Kenneth Ruud,             UiT The Arctic U. of Norway,  Norway      (DALTON; ABACUS magnetic properties and much more)
  Pawel Salek,              KTH Stockholm,                Sweden      (DALTON; DFT code)
  Claire C. M. Samson       University of Karlsruhe       Germany     (Boys localization, r12 integrals in ERI)
  Alfredo Sanchez de Meras, University of Valencia,       Spain       (CC module, Cholesky decomposition)
  Trond Saue,               Paul Sabatier University,     France      (direct Fock matrix construction)
  Stephan P. A. Sauer,      University of Copenhagen,     Denmark     (SOPPA(CCSD), SOPPA prop., AOSOPPA, vibrational g-factors)
  Bernd Schimmelpfennig,    Forschungszentrum Karlsruhe,  Germany     (AMFI module)
  Anna K. Schnack-Petersen, University of Copenhagen,     Denmark     (RPA(D) and HRPA(D) properties in AOSOPPA)
  Kristian Sneskov,         Aarhus University,            Denmark     (Polarizable embedding, QM/MM)
  Arnfinn H. Steindal,      UiT The Arctic U. of Norway,  Norway      (parallel QM/MM, polarizable embedding)
  Casper Steinmann,         Aalborg University,           Denmark     (QFIT, polarizable embedding)
  K. O. Sylvester-Hvid,     University of Copenhagen,     Denmark     (MC-SCRF)
  Peter R. Taylor,          VLSCI/Univ. of Melbourne,     Australia   (Symmetry handling ABACUS, integral transformation)
  Andrew M. Teale,          University of Nottingham,     England     (DFT-AC, DFT-D)
  David P. Tew,             University of Bristol,        England     (CCSD(R12))
  Julien Toulouse,          Sorbonne Univ.,               France      (MC-srDFT)
  Olav Vahtras,             KTH Stockholm,                Sweden      (Triplet response, spin-orbit, ESR, TDDFT, open-shell DFT)
  Lucas Visscher,           Vrije Universiteit Amsterdam, Netherlands (Frozen density embedding)
  David J. Wilson,          La Trobe University,          Australia   (DFT Hessian and DFT magnetizabilities)
  Hans Agren,               KTH Stockholm,                Sweden      (SIRIUS module, RESPONS, MC-SCRF solvation)
 --------------------------------------------------------------------------------

     Date and time (Linux)  : Tue May 27 13:54:00 2025
     Host name              : xm059                                   

 * Work memory size             :   131072000 = 1000.00 megabytes.

 * Directories for basis set searches:
   1) /gpfs/projects/rjh/adrian/summer2025/beta_projects/raw_data/NLO/dalton/hf/n15/dipole
   2) /gpfs/projects/rjh/adrian/dalton/build/basis


Compilation information
-----------------------

 Who compiled             | ahurtado
 Host                     | milan2
 System                   | Linux-5.14.0-427.42.1.el9_4.x86_64
 CMake generator          | Unix Makefiles
 Processor                | x86_64
 64-bit integers          | OFF
 MPI                      | ON
 Fortran compiler         | /gpfs/software/openmpi/milan/gcc13.2/4.1.6/bin/mpi
                          | f90
 Fortran compiler version | GNU Fortran (GCC) 13.2.0
 C compiler               | /gpfs/software/openmpi/milan/gcc13.2/4.1.6/bin/mpi
                          | cc
 C compiler version       | gcc (GCC) 13.2.0
 C++ compiler             | /gpfs/software/openmpi/milan/gcc13.2/4.1.6/bin/mpi
                          | cxx
 C++ compiler version     | unknown
 BLAS                     | /gpfs/software/intel/oneAPI/2024_2/mkl/2024.2/lib/
                          | intel64/libmkl_gf_lp64.so;/gpfs/software/intel/one
                          | API/2024_2/mkl/2024.2/lib/intel64/libmkl_sequentia
                          | l.so;/gpfs/software/intel/oneAPI/2024_2/mkl/2024.2
                          | /lib/intel64/libmkl_core.so;/usr/lib64/libpthread.
                          | a;/usr/lib64/libm.so
 LAPACK                   | /gpfs/software/intel/oneAPI/2024_2/mkl/2024.2/lib/
                          | intel64/libmkl_lapack95_lp64.a;/gpfs/software/inte
                          | l/oneAPI/2024_2/mkl/2024.2/lib/intel64/libmkl_gf_l
                          | p64.so
 Static linking           | OFF
 Last Git revision        | 66052b3af5ea7225e31178bf9a8b031913c72190
 Git branch               | (HEAD detached at Dalton2020.0)
 Configuration time       | 2025-04-10 16:02:31.569498

 * MPI parallel run using 576 processes.


   Content of the .dal input file
 ----------------------------------

**DALTON INPUT
.RUN RESPONSE
.DIRECT
**WAVE FUNCTIONS
.HF
**PROPERTIES
**RESPONSE
*QUADRA
.DIPLEN
.FREQUENCIES
2
0.0 0.0151
**END OF DALTON INPUT


   Content of the .mol file
 ----------------------------

BASIS
aug-cc-pVDZ
blah
blah
Atomtype=4 Angstrom Charge=0 Nosymmetry
Charge=6 Atoms=30
C_a 0.5087160023080569 0.5307419982654954 0.0
C_b -0.1499670011342733 1.740530998481664 0.0
C_c 0.5119900005433838 3.0154770012609258 0.0
C_d -0.14944499956657997 4.223794999958646 0.0
C_e 0.5087160023080569 5.5007790017622735 0.0
C_f -0.15645499949278127 6.70694700107899 0.0
C_g 0.496456998377322 7.986875000917598 0.0
C_h -0.17400999836435735 9.189824999531421 0.0
C_i 0.47132300178377173 10.474130998852887 0.0
C_j -0.2068789994133594 11.672133000043152 0.0
C_k 0.42695900169371165 12.963178002349462 0.0
C_l -0.2632879988783874 14.153069997653931 0.0
C_m 0.35120499794075105 15.455243998875314 0.0
C_n -0.36116400191834624 16.629613998899707 0.0
C_o 0.2148920018246646 17.950934002027175 0.0
C_p -0.5556280012510373 19.08327400155043 0.0
C_q 0.4403500003464234 -9.404932000765008 0.0
C_r -0.20688099970321575 -8.191118999452831 0.0
C_s 0.46789400225166755 -6.921341999667393 0.0
C_t -0.18363100098218124 -5.708749000539099 0.0
C_u 0.48693599966877055 -4.437578999956066 0.0
C_v -0.1673289984935738 -3.225871002086668 0.0
C_w 0.5002509978904859 -1.953576002504383 0.0
C_x -0.15619899943357543 -0.7427290024156055 0.0
C_y 0.32798999900043024 -14.37061399752873 0.0
C_z -0.29751000021963053 -13.151493999681502 0.0
C_{ 0.39785000052208785 -11.88837100114556 0.0
C_| -0.24155599790388085 -10.672447000812804 0.0
C_} 0.20156300157395496 -16.83078200143653 0.0
C_~ -0.40155999844483 -15.619834002585321 0.0
Charge=7 Atoms=2
N_a -0.09696999873757071 20.37312500014922 0.0
N_b -0.5807609976996594 -18.06222600205128 0.0
Charge=8 Atoms=2
O_a 0.07628000060859447 -19.110176000371915 0.0
O_b -1.8112740009723618 -17.986109998752045 0.0
Charge=1 Atoms=32
H_a 1.6086990009007216 0.5317860014008821 0.0
H_b -1.2501259987754347 1.7382580024415848 0.0
H_c 1.6119779998606896 3.0190289974521063 0.0
H_d -1.2496410025700835 4.218624001966738 0.0
H_e 1.6086899995963682 5.507636000681553 0.0
H_f -1.2566919978547957 6.697789002061642 0.0
H_g 1.5963839994375535 7.998350002351865 0.0
H_h -1.2742840020887138 9.174934000449117 0.0
H_i 1.571137002342437 10.492289000447794 0.0
H_j -1.3071659997300098 11.648617999958557 0.0
H_k 1.526492998714895 12.991507001604333 0.0
H_l -1.3634870023166756 14.115234001719507 0.0
H_m 1.4498889987755237 15.501239002505242 0.0
H_n -1.4603910020725315 16.563519998124995 0.0
H_o 1.3095540018532839 18.043885000393377 0.0
H_p -1.648976001347842 18.990835998155795 0.0
H_q 1.539988001856592 -9.416521997698926 0.0
H_r -1.3069210012650139 -8.182631002285456 0.0
H_s 1.5677139983881296 -6.927825002593033 0.0
H_t -1.2837070024696213 -5.704036000131253 0.0
H_u 1.5868459982652234 -4.440977000287169 0.0
H_v -1.267429998312446 -3.223699999662173 0.0
H_w 1.6002089981517185 -1.9546869994746403 0.0
H_x -1.256326997873736 -0.7427049989373296 0.0
H_y 1.4258090014748694 -14.4090960024184 0.0
H_z -1.397044002532586 -13.125649000587696 0.0
H_{ 1.497090002560339 -11.909379997880672 0.0
H_| -1.341505002152532 -10.657317998988228 0.0
H_} 1.2776720009705351 -17.01445999864679 0.0
H_~ -1.49798800041153 -15.5961169996841 0.0
H_ 0.8943369979554827 20.570428998319677 0.0
H_ -0.7362980017344588 21.15248999921393 0.0


       *******************************************************************
       *********** Output from DALTON general input processing ***********
       *******************************************************************

 --------------------------------------------------------------------------------
   Overall default print level:    0
   Print level for DALTON.STAT:    1

    Parallel calculation using MPI
    AO-direct calculation (in sections where implemented)
    HERMIT 1- and 2-electron integral sections will be executed
    "Old" integral transformation used (limited to max 255 basis functions)
    Wave function sections will be executed (SIRIUS module)
    Dynamic molecular response properties section will be executed (RESPONSE module)
 --------------------------------------------------------------------------------


   ****************************************************************************
   *************** Output of molecule and basis set information ***************
   ****************************************************************************


    The two title cards from your ".mol" input:
    ------------------------------------------------------------------------
 1: blah                                                                    
 2: blah                                                                    
    ------------------------------------------------------------------------

  Coordinates are entered in Angstrom and converted to atomic units.
          - Conversion factor : 1 bohr = 0.52917721 A

  Atomic type no.    1
  --------------------
  Nuclear charge:   6.00000
  Number of symmetry independent centers:   30
  Number of basis sets to read;    2
  Basis set file used for this atomic type with Z =   6 :
     "/gpfs/projects/rjh/adrian/dalton/build/basis/aug-cc-pVDZ"

  Atomic type no.    2
  --------------------
  Nuclear charge:   7.00000
  Number of symmetry independent centers:    2
  Number of basis sets to read;    2
  Basis set file used for this atomic type with Z =   7 :
     "/gpfs/projects/rjh/adrian/dalton/build/basis/aug-cc-pVDZ"

  Atomic type no.    3
  --------------------
  Nuclear charge:   8.00000
  Number of symmetry independent centers:    2
  Number of basis sets to read;    2
  Basis set file used for this atomic type with Z =   8 :
     "/gpfs/projects/rjh/adrian/dalton/build/basis/aug-cc-pVDZ"

  Atomic type no.    4
  --------------------
  Nuclear charge:   1.00000
  Number of symmetry independent centers:   32
  Number of basis sets to read;    2
  Basis set file used for this atomic type with Z =   1 :
     "/gpfs/projects/rjh/adrian/dalton/build/basis/aug-cc-pVDZ"


                         SYMGRP: Point group information
                         -------------------------------

@    Point group: C1 


                                 Isotopic Masses
                                 ---------------

                           C_a        12.000000
                           C_b        12.000000
                           C_c        12.000000
                           C_d        12.000000
                           C_e        12.000000
                           C_f        12.000000
                           C_g        12.000000
                           C_h        12.000000
                           C_i        12.000000
                           C_j        12.000000
                           C_k        12.000000
                           C_l        12.000000
                           C_m        12.000000
                           C_n        12.000000
                           C_o        12.000000
                           C_p        12.000000
                           C_q        12.000000
                           C_r        12.000000
                           C_s        12.000000
                           C_t        12.000000
                           C_u        12.000000
                           C_v        12.000000
                           C_w        12.000000
                           C_x        12.000000
                           C_y        12.000000
                           C_z        12.000000
                           C_{        12.000000
                           C_|        12.000000
                           C_}        12.000000
                           C_~        12.000000
                           N_a        14.003074
                           N_b        14.003074
                           O_a        15.994915
                           O_b        15.994915
                           H_a         1.007825
                           H_b         1.007825
                           H_c         1.007825
                           H_d         1.007825
                           H_e         1.007825
                           H_f         1.007825
                           H_g         1.007825
                           H_h         1.007825
                           H_i         1.007825
                           H_j         1.007825
                           H_k         1.007825
                           H_l         1.007825
                           H_m         1.007825
                           H_n         1.007825
                           H_o         1.007825
                           H_p         1.007825
                           H_q         1.007825
                           H_r         1.007825
                           H_s         1.007825
                           H_t         1.007825
                           H_u         1.007825
                           H_v         1.007825
                           H_w         1.007825
                           H_x         1.007825
                           H_y         1.007825
                           H_z         1.007825
                           H_{         1.007825
                           H_|         1.007825
                           H_}         1.007825
                           H_~         1.007825
                           H_         1.007825
                           H_        1.007825

                       Total mass:   452.246378 amu
                       Natural abundance:  70.550 %

 Center-of-mass coordinates (a.u.):   -0.011475   -0.312820    0.000000
 Center-of-mass coordinates (Angs):   -0.006072   -0.165537    0.000000


  Atoms and basis sets
  --------------------

  Number of atom types :    4
  Total number of atoms:   66

  Basis set used is "aug-cc-pVDZ" from the basis set library.

  label    atoms   charge   prim   cont     basis
  ----------------------------------------------------------------------
  C_         30    6.0000    35    23      [10s5p2d|4s3p2d]                                   
  N_          2    7.0000    35    23      [10s5p2d|4s3p2d]                                   
  O_          2    8.0000    35    23      [10s5p2d|4s3p2d]                                   
  H_         32    1.0000    11     9      [5s2p|3s2p]                                        
  ----------------------------------------------------------------------
  total:     66  242.0000  1542  1070
  ----------------------------------------------------------------------
  Spherical harmonic basis used.

  Threshold for neglecting AO integrals:  1.00D-12

  Max    interatomic separation is   40.2709 Angstrom (   76.1009 Bohr)
  between atoms   66 and   33, "H_  " and "O_a   ".

  Min HX interatomic separation is    1.0080 Angstrom (    1.9049 Bohr)

  Min YX interatomic separation is    1.2329 Angstrom (    2.3298 Bohr)


  Bond distances (Angstrom):
  --------------------------

                  atom 1     atom 2       distance
                  ------     ------       --------
  bond distance:  C_b        C_a          1.377481
  bond distance:  C_c        C_b          1.436549
  bond distance:  C_d        C_c          1.377508
  bond distance:  C_e        C_d          1.436615
  bond distance:  C_f        C_e          1.377423
  bond distance:  C_g        C_f          1.436840
  bond distance:  C_h        C_g          1.377176
  bond distance:  C_i        C_h          1.437323
  bond distance:  C_j        C_i          1.376651
  bond distance:  C_k        C_j          1.438245
  bond distance:  C_l        C_k          1.375603
  bond distance:  C_m        C_l          1.439882
  bond distance:  C_n        C_m          1.373541
  bond distance:  C_o        C_n          1.441432
  bond distance:  C_p        C_o          1.369633
  bond distance:  C_r        C_q          1.375591
  bond distance:  C_s        C_r          1.437934
  bond distance:  C_t        C_s          1.376542
  bond distance:  C_u        C_t          1.437196
  bond distance:  C_v        C_u          1.377062
  bond distance:  C_w        C_v          1.436801
  bond distance:  C_x        C_a          1.436607
  bond distance:  C_x        C_w          1.377344
  bond distance:  C_z        C_y          1.370220
  bond distance:  C_{        C_z          1.441876
  bond distance:  C_|        C_q          1.439302
  bond distance:  C_|        C_{          1.373794
  bond distance:  C_~        C_y          1.446649
  bond distance:  C_~        C_}          1.352831
  bond distance:  N_a        C_p          1.368971
  bond distance:  N_b        C_}          1.458933
  bond distance:  O_a        N_b          1.236892
  bond distance:  O_b        N_b          1.232865
  bond distance:  H_a        C_a          1.099983
  bond distance:  H_b        C_b          1.100161
  bond distance:  H_c        C_c          1.099994
  bond distance:  H_d        C_d          1.100208
  bond distance:  H_e        C_e          1.099995
  bond distance:  H_f        C_f          1.100275
  bond distance:  H_g        C_g          1.099987
  bond distance:  H_h        C_h          1.100375
  bond distance:  H_i        C_i          1.099964
  bond distance:  H_j        C_j          1.100538
  bond distance:  H_k        C_k          1.099899
  bond distance:  H_l        C_l          1.100849
  bond distance:  H_m        C_m          1.099646
  bond distance:  H_n        C_n          1.101212
  bond distance:  H_o        C_o          1.098601
  bond distance:  H_p        C_p          1.097249
  bond distance:  H_q        C_q          1.099699
  bond distance:  H_r        C_r          1.100073
  bond distance:  H_s        C_s          1.099839
  bond distance:  H_t        C_t          1.100086
  bond distance:  H_u        C_u          1.099915
  bond distance:  H_v        C_v          1.100103
  bond distance:  H_w        C_w          1.099959
  bond distance:  H_x        C_x          1.100128
  bond distance:  H_y        C_y          1.098493
  bond distance:  H_z        C_z          1.099838
  bond distance:  H_{        C_{          1.099441
  bond distance:  H_|        C_|          1.100053
  bond distance:  H_}        C_}          1.091672
  bond distance:  H_~        C_~          1.096684
  bond distance:  H_        N_a          1.010751
  bond distance:  H_       N_a          1.008043


  Bond angles (degrees):
  ----------------------

                  atom 1     atom 2     atom 3         angle
                  ------     ------     ------         -----
  bond angle:     C_b        C_a        C_x          123.863
  bond angle:     C_b        C_a        H_a          118.512
  bond angle:     C_x        C_a        H_a          117.625
  bond angle:     C_a        C_b        C_c          123.995
  bond angle:     C_a        C_b        H_b          118.448
  bond angle:     C_c        C_b        H_b          117.557
  bond angle:     C_b        C_c        C_d          123.865
  bond angle:     C_b        C_c        H_c          117.624
  bond angle:     C_d        C_c        H_c          118.511
  bond angle:     C_c        C_d        C_e          124.037
  bond angle:     C_c        C_d        H_d          118.427
  bond angle:     C_e        C_d        H_d          117.536
  bond angle:     C_d        C_e        C_f          123.858
  bond angle:     C_d        C_e        H_e          117.624
  bond angle:     C_f        C_e        H_e          118.518
  bond angle:     C_e        C_f        C_g          124.098
  bond angle:     C_e        C_f        H_f          118.399
  bond angle:     C_g        C_f        H_f          117.504
  bond angle:     C_f        C_g        C_h          123.840
  bond angle:     C_f        C_g        H_g          117.625
  bond angle:     C_h        C_g        H_g          118.535
  bond angle:     C_g        C_h        C_i          124.188
  bond angle:     C_g        C_h        H_h          118.358
  bond angle:     C_i        C_h        H_h          117.454
  bond angle:     C_h        C_i        C_j          123.807
  bond angle:     C_h        C_i        H_i          117.624
  bond angle:     C_j        C_i        H_i          118.569
  bond angle:     C_i        C_j        C_k          124.337
  bond angle:     C_i        C_j        H_j          118.290
  bond angle:     C_k        C_j        H_j          117.373
  bond angle:     C_j        C_k        C_l          123.734
  bond angle:     C_j        C_k        H_k          117.625
  bond angle:     C_l        C_k        H_k          118.642
  bond angle:     C_k        C_l        C_m          124.620
  bond angle:     C_k        C_l        H_l          118.148
  bond angle:     C_m        C_l        H_l          117.232
  bond angle:     C_l        C_m        C_n          123.497
  bond angle:     C_l        C_m        H_m          117.660
  bond angle:     C_n        C_m        H_m          118.844
  bond angle:     C_m        C_n        C_o          125.203
  bond angle:     C_m        C_n        H_n          117.800
  bond angle:     C_o        C_n        H_n          116.997
  bond angle:     C_n        C_o        C_p          122.210
  bond angle:     C_n        C_o        H_o          118.409
  bond angle:     C_p        C_o        H_o          119.380
  bond angle:     C_o        C_p        N_a          126.191
  bond angle:     C_o        C_p        H_p          119.401
  bond angle:     N_a        C_p        H_p          114.407
  bond angle:     C_r        C_q        C_|          123.653
  bond angle:     C_r        C_q        H_q          118.671
  bond angle:     C_|        C_q        H_q          117.676
  bond angle:     C_q        C_r        C_s          123.946
  bond angle:     C_q        C_r        H_r          118.510
  bond angle:     C_s        C_r        H_r          117.545
  bond angle:     C_r        C_s        C_t          123.764
  bond angle:     C_r        C_s        H_s          117.649
  bond angle:     C_t        C_s        H_s          118.587
  bond angle:     C_s        C_t        C_u          123.938
  bond angle:     C_s        C_t        H_t          118.495
  bond angle:     C_u        C_t        H_t          117.567
  bond angle:     C_t        C_u        C_v          123.821
  bond angle:     C_t        C_u        H_u          117.636
  bond angle:     C_v        C_u        H_u          118.544
  bond angle:     C_u        C_v        C_w          123.947
  bond angle:     C_u        C_v        H_v          118.480
  bond angle:     C_w        C_v        H_v          117.573
  bond angle:     C_v        C_w        C_x          123.850
  bond angle:     C_v        C_w        H_w          117.628
  bond angle:     C_x        C_w        H_w          118.522
  bond angle:     C_a        C_x        C_w          123.966
  bond angle:     C_a        C_x        H_x          117.569
  bond angle:     C_w        C_x        H_x          118.465
  bond angle:     C_z        C_y        C_~          122.554
  bond angle:     C_z        C_y        H_y          119.169
  bond angle:     C_~        C_y        H_y          118.278
  bond angle:     C_y        C_z        C_{          124.006
  bond angle:     C_y        C_z        H_z          118.508
  bond angle:     C_{        C_z        H_z          117.487
  bond angle:     C_z        C_{        C_|          123.429
  bond angle:     C_z        C_{        H_{          117.738
  bond angle:     C_|        C_{        H_{          118.833
  bond angle:     C_q        C_|        C_{          123.982
  bond angle:     C_q        C_|        H_|          117.492
  bond angle:     C_{        C_|        H_|          118.526
  bond angle:     C_~        C_}        N_b          121.097
  bond angle:     C_~        C_}        H_}          126.162
  bond angle:     N_b        C_}        H_}          112.741
  bond angle:     C_y        C_~        C_}          123.239
  bond angle:     C_y        C_~        H_~          119.046
  bond angle:     C_}        C_~        H_~          117.715
  bond angle:     C_p        N_a        H_          120.832
  bond angle:     C_p        N_a        H_         121.062
  bond angle:     H_        N_a        H_         118.106
  bond angle:     C_}        N_b        O_a          115.486
  bond angle:     C_}        N_b        O_b          118.888
  bond angle:     O_a        N_b        O_b          125.626




 Principal moments of inertia (u*A**2) and principal axes
 --------------------------------------------------------

   IA     163.817506          0.007878    0.999969    0.000000
   IB   67827.654029          0.999969   -0.007878    0.000000
   IC   67991.471534          0.000000    0.000000    1.000000


 Rotational constants
 --------------------

@    The molecule is planar.

               A                   B                   C

           3085.0122              7.4509              7.4330 MHz
            0.102905            0.000249            0.000248 cm-1


@  Nuclear repulsion energy : 2233.399100428078 Hartree


                     .---------------------------------------.
                     | Starting in Integral Section (HERMIT) |
                     `---------------------------------------'



 ***************************************************************************************
 ****************** Output from **INTEGRALS input processing (HERMIT) ******************
 ***************************************************************************************


 - Using defaults, no **INTEGRALS input found

 Default print level:        1

 Calculation of one-electron Hamiltonian integrals.

 Center of mass  (bohr):     -0.011474676929     -0.312820016859      0.000000000000
 Operator center (bohr):      0.000000000000      0.000000000000      0.000000000000
 Gauge origin    (bohr):      0.000000000000      0.000000000000      0.000000000000
 Dipole origin   (bohr):      0.000000000000      0.000000000000      0.000000000000


     ************************************************************************
     ************************** Output from HERINT **************************
     ************************************************************************



                      Nuclear contribution to dipole moments
                      --------------------------------------

                 au               Debye          C m (/(10**-30)

      x     -0.00004330        -0.00011006        -0.00036711
      y      0.00002825         0.00007180         0.00023951
      z      0.00000000         0.00000000         0.00000000


  Time used in ONEDRV     is       2.88 seconds
  Time used in HUCKEL     is       0.66 seconds
  Time used in OVERLAP    is       0.30 seconds
  Time used in POPOVLP    is       0.59 seconds
  Time used in R2         is       0.36 seconds
  Time used in R4         is       0.42 seconds
  Time used in DIPLEN     is       0.39 seconds
  Time used in QUADRUP    is       0.74 seconds
  Time used in KINENE     is       0.52 seconds
  Time used in GABGEN     is       1.92 seconds
  Total CPU  time used in HERMIT:   8.78 seconds
  Total wall time used in HERMIT:   8.84 seconds


                        .----------------------------------.
                        | End of Integral Section (HERMIT) |
                        `----------------------------------'



                   .--------------------------------------------.
                   | Starting in Wave Function Section (SIRIUS) |
                   `--------------------------------------------'



@ Primary orbitals are deleted during canonical orthonormalization
@   because of detected numerical linear dependence or too large coefficients.
@ Eigenvalue threshold for num. lin. dep. =  1.00D-06

@   3 MO components are deleted in symmetry    1
 Overlap eigenvalues of the deleted orbitals:
  9.89D-07  3.68D-07  9.67D-08

 Max MO coeff. of last deleted MO & limit:  2.51D+02  1.00D+03

WARNING: Orbitals have been deleted because of numerical
   linear dependence although not requested in input.

 *** Output from Huckel module :

     Using EWMO model:          T
     Using EHT  model:          F
     Number of Huckel orbitals each symmetry:  202

 EWMO - Energy Weighted Maximum Overlap - is a Huckel type method,
        which normally is better than Extended Huckel Theory.
 Reference: Linderberg and Ohrn, Propagators in Quantum Chemistry (Wiley, 1973)

 Huckel EWMO eigenvalues for symmetry :  1
          -20.684753     -20.683498     -15.677080     -15.674960     -11.359418
          -11.359392     -11.359222     -11.359177     -11.358955     -11.358869
          -11.358774     -11.358279     -11.357491     -11.356516     -11.355404
          -11.354215     -11.353009     -11.351853     -11.350860     -11.348664
          -11.348020     -11.347329     -11.346712     -11.346203     -11.345813
          -11.345547     -11.345487     -11.345453     -11.345371     -11.345357
          -11.345264     -11.345249     -11.345181     -11.345177      -1.964049
           -1.792974      -1.790903      -1.786019      -1.776313      -1.759863
           -1.734941      -1.700402      -1.655928      -1.602077      -1.540229
           -1.473584      -1.443213      -1.395679      -1.320924      -1.244704
           -1.212890      -1.196939      -1.174637      -1.165822      -1.138892
           -1.098937      -1.093876      -1.053279      -1.021317      -1.002628
           -0.963387      -0.944684      -0.912048      -0.885728      -0.864035
           -0.852027      -0.837425      -0.821219      -0.811603      -0.785245
           -0.773057      -0.753942      -0.747002      -0.741859      -0.729073
           -0.699698      -0.695555      -0.678064      -0.668693      -0.667047
           -0.646775      -0.632272      -0.631024      -0.617404      -0.596616
           -0.596150      -0.587054      -0.585351      -0.560813      -0.559863
           -0.551682      -0.542237      -0.528809      -0.524270      -0.521889
           -0.509108      -0.504556      -0.495728      -0.493814      -0.492698
           -0.489789      -0.488775      -0.487617      -0.484431      -0.482480
           -0.479573      -0.477583      -0.477166      -0.474145      -0.473972
           -0.457048      -0.454765      -0.428620      -0.426528      -0.405074
           -0.398600      -0.385539      -0.373512      -0.370889      -0.361776
           -0.351565      -0.336028      -0.308348      -0.290464      -0.274062
           -0.259482      -0.246722      -0.235703      -0.229150      -0.226313
           -0.218424      -0.211898      -0.206594      -0.202373      -0.200878
           -0.199109      -0.196691      -0.195029      -0.194058      -0.190598
           -0.166740      -0.142717      -0.139028      -0.135733      -0.133586
           -0.132097      -0.131634      -0.131287      -0.130729      -0.130481
           -0.129886      -0.129805      -0.129613      -0.129339      -0.129238
           -0.128777      -0.128170      -0.128020      -0.127528      -0.127490
           -0.126852      -0.126449      -0.126338      -0.125987      -0.125880
           -0.125233      -0.124881      -0.124472      -0.124121      -0.123768
           -0.123598      -0.123200      -0.113023      -0.112311      -0.110173
           -0.108646      -0.106328      -0.104760      -0.102167      -0.101222
           -0.098245      -0.097478      -0.095001      -0.094203      -0.092421
           -0.091346      -0.090267      -0.089161      -0.088377      -0.087549
           -0.086801      -0.086253      -0.085671      -0.085129      -0.084963
           -0.084073      -0.083063      -0.082073      -0.081123      -0.080279
           -0.079641      -0.079330

 **********************************************************************
 *SIRIUS* a direct, restricted step, second order MCSCF program       *
 **********************************************************************

 
     Date and time (Linux)  : Tue May 27 13:55:21 2025
     Host name              : xm059                                   

 Title lines from ".mol" input file:
     blah                                                                    
     blah                                                                    

 Print level on unit LUPRI =   2 is   0
 Print level on unit LUW4  =   2 is   5

@    Restricted, closed shell Hartree-Fock calculation.

@    Time-dependent Hartree-Fock calculation (random phase approximation).
 Fock matrices are calculated directly and in parallel without use of integrals on disk.

 Initial molecular orbitals are obtained according to
 ".MOSTART EWMO  " input option

     Wave function specification
     ============================
@    Wave function type        --- HF ---
@    Number of closed shell electrons         242
@    Number of electrons in active shells       0
@    Total charge of the molecule               0

@    Spin multiplicity and 2 M_S                1         0
@    Total number of symmetries                 1 (point group: C1 )
@    Reference state symmetry                   1 (irrep name : A  )

     Orbital specifications
     ======================
@    Abelian symmetry species          All |    1
@                                          |  A  
                                       --- |  ---
@    Occupied SCF orbitals             121 |  121
@    Secondary orbitals                946 |  946
@    Total number of orbitals         1067 | 1067
@    Number of basis functions        1070 | 1070

     Optimization information
     ========================
@    Number of configurations                 1
@    Number of orbital rotations         114466
     ------------------------------------------
@    Total number of variables           114467

     Maximum number of Fock   iterations      0
     Maximum number of DIIS   iterations     60
     Maximum number of QC-SCF iterations     60
     Threshold for SCF convergence     1.00D-05

    INFORMATION: Switched to "new" integral transformation (from 1988 ;-) )
    because more than 255 basis functions.


 ***********************************************
 ***** DIIS acceleration of SCF iterations *****
 ***********************************************

 C1-DIIS algorithm; max error vectors =    8

 Iter      Total energy        Error norm    Delta(E)  DIIS dim.
 -----------------------------------------------------------------------------
   1  Screening settings (-IFTHRS, JTDIIS, DIFDEN, times)  -10    1    T  1.07D+01  1.07D+01
@  1    -1408.07662516        8.22931D+00   -1.41D+03    1
      Virial theorem: -V/T =      2.013380
@    MULPOP   C_a     0.24; C_b     0.29; C_c     0.24; C_d     0.30; C_e     0.24; C_f     0.30; C_g     0.24; C_h     0.28; C_i     0.21; C_j     0.30; 
@             C_k     0.19; C_l     0.36; C_m     0.19; C_n     0.31; C_o    -0.18; C_p     0.82; C_q     0.27; C_r     0.30; C_s     0.25; C_t     0.31; 
@             C_u     0.26; C_v     0.31; C_w     0.26; C_x     0.29; C_y     0.22; C_z     0.37; C_{     0.27; C_|     0.30; C_}     0.75; C_~     0.06; 
@    MULPOP    dipole moment & components:     39.6623;        2.0543     39.6091      0.0000
   1  Level shift: doubly occupied orbital energies shifted by -2.00D-01
 -----------------------------------------------------------------------------
   2  Screening settings (-IFTHRS, JTDIIS, DIFDEN, times)  -10    2    T  6.20D+00  6.20D+00
@  2    -1412.50220387        2.97239D+00   -4.43D+00    2
      Virial theorem: -V/T =      2.000778
@    MULPOP   C_a     0.64; C_b     0.58; C_c     0.61; C_d     0.59; C_e     0.64; C_f     0.58; C_g     0.63; C_h     0.57; C_i     0.67; C_j     0.56; 
@             C_k     0.68; C_l     0.56; C_m     0.82; C_n     0.37; C_o     0.72; C_p     0.67; C_q     0.63; C_r     0.60; C_s     0.62; C_t     0.57; 
@             C_u     0.63; C_v     0.58; C_w     0.62; C_x     0.58; C_y     0.70; C_z     0.56; C_{     0.68; C_|     0.54; C_}     0.74; C_~     0.51; 
@    MULPOP    dipole moment & components:     15.4038;        2.1807     15.2486      0.0000
   2  Level shift: doubly occupied orbital energies shifted by -1.00D-01
 -----------------------------------------------------------------------------
   3  Screening settings (-IFTHRS, JTDIIS, DIFDEN, times)  -10    3    T  5.96D+00  5.97D+00
@  3    -1413.02709675        1.08376D+00   -5.25D-01    3
      Virial theorem: -V/T =      2.001395
@    MULPOP   C_a     0.68; C_b     0.59; C_c     0.66; C_d     0.60; C_e     0.68; C_f     0.59; C_g     0.67; C_h     0.57; C_i     0.71; C_j     0.58; 
@             C_k     0.70; C_l     0.61; C_m     0.77; C_n     0.40; C_o     0.76; C_p     0.89; C_q     0.67; C_r     0.63; C_s     0.68; C_t     0.59; 
@             C_u     0.68; C_v     0.60; C_w     0.67; C_x     0.58; C_y     0.71; C_z     0.52; C_{     0.75; C_|     0.58; C_}     1.28; C_~     0.60; 
@    MULPOP    dipole moment & components:     13.0695;        2.7905     12.7682      0.0000
   3  Level shift: doubly occupied orbital energies shifted by -5.00D-02
 -----------------------------------------------------------------------------
   4  Screening settings (-IFTHRS, JTDIIS, DIFDEN, times)  -10    4    T  5.80D+00  5.81D+00
@  4    -1413.11097662        3.32065D-01   -8.39D-02    4
      Virial theorem: -V/T =      2.002706
@    MULPOP   C_a     0.68; C_b     0.59; C_c     0.67; C_d     0.59; C_e     0.70; C_f     0.57; C_g     0.68; C_h     0.55; C_i     0.72; C_j     0.56; 
@             C_k     0.71; C_l     0.60; C_m     0.80; C_n     0.37; C_o     0.78; C_p     0.92; C_q     0.68; C_r     0.63; C_s     0.68; C_t     0.58; 
@             C_u     0.68; C_v     0.60; C_w     0.68; C_x     0.58; C_y     0.72; C_z     0.52; C_{     0.77; C_|     0.60; C_}     1.21; C_~     0.58; 
@    MULPOP    dipole moment & components:     11.9204;        2.9985     11.5372      0.0000
   4  Level shift: doubly occupied orbital energies shifted by -2.50D-02
 -----------------------------------------------------------------------------
   5  Screening settings (-IFTHRS, JTDIIS, DIFDEN, times)  -10    5    T  5.72D+00  5.72D+00
@  5    -1413.12897314        1.40678D-01   -1.80D-02    5
      Virial theorem: -V/T =      2.002161
@    MULPOP   C_a     0.67; C_b     0.57; C_c     0.66; C_d     0.57; C_e     0.69; C_f     0.56; C_g     0.68; C_h     0.54; C_i     0.72; C_j     0.54; 
@             C_k     0.72; C_l     0.58; C_m     0.81; C_n     0.35; C_o     0.77; C_p     0.88; C_q     0.68; C_r     0.60; C_s     0.68; C_t     0.56; 
@             C_u     0.68; C_v     0.58; C_w     0.67; C_x     0.56; C_y     0.75; C_z     0.46; C_{     0.80; C_|     0.55; C_}     1.27; C_~     0.49; 
@    MULPOP    dipole moment & components:     10.8706;        3.2579     10.3710      0.0000
   5  Level shift: doubly occupied orbital energies shifted by -1.25D-02
 -----------------------------------------------------------------------------
   6  Screening settings (-IFTHRS, JTDIIS, DIFDEN, times)  -10    6    T  5.57D+00  5.57D+00
@  6    -1413.13436034        7.60910D-02   -5.39D-03    6
      Virial theorem: -V/T =      2.002036
@    MULPOP   C_a     0.68; C_b     0.56; C_c     0.66; C_d     0.57; C_e     0.69; C_f     0.55; C_g     0.68; C_h     0.53; C_i     0.72; C_j     0.54; 
@             C_k     0.71; C_l     0.58; C_m     0.81; C_n     0.34; C_o     0.76; C_p     0.88; C_q     0.70; C_r     0.58; C_s     0.69; C_t     0.54; 
@             C_u     0.68; C_v     0.57; C_w     0.68; C_x     0.55; C_y     0.78; C_z     0.44; C_{     0.82; C_|     0.53; C_}     1.28; C_~     0.47; 
@    MULPOP    dipole moment & components:     10.3107;        3.4477      9.7172      0.0000
   6  Level shift: doubly occupied orbital energies shifted by -1.25D-02
 -----------------------------------------------------------------------------
   7  Screening settings (-IFTHRS, JTDIIS, DIFDEN, times)  -14    7    F  7.40D+00  7.41D+00
@  7    -1413.13640586        3.57527D-02   -2.05D-03    7
      Virial theorem: -V/T =      2.002051
@    MULPOP   C_a     0.68; C_b     0.56; C_c     0.66; C_d     0.56; C_e     0.69; C_f     0.54; C_g     0.68; C_h     0.53; C_i     0.72; C_j     0.54; 
@             C_k     0.71; C_l     0.57; C_m     0.81; C_n     0.34; C_o     0.76; C_p     0.88; C_q     0.70; C_r     0.58; C_s     0.70; C_t     0.54; 
@             C_u     0.68; C_v     0.56; C_w     0.68; C_x     0.55; C_y     0.80; C_z     0.41; C_{     0.83; C_|     0.52; C_}     1.30; C_~     0.44; 
@    MULPOP    dipole moment & components:      9.9390;        3.4977      9.3032      0.0000
 -----------------------------------------------------------------------------
   8  Screening settings (-IFTHRS, JTDIIS, DIFDEN, times)  -14    8    T  6.91D+00  6.91D+00
@  8    -1413.13685342        1.59765D-02   -4.48D-04    8
      Virial theorem: -V/T =      2.002048
@    MULPOP   C_a     0.67; C_b     0.56; C_c     0.66; C_d     0.57; C_e     0.69; C_f     0.55; C_g     0.68; C_h     0.53; C_i     0.71; C_j     0.54; 
@             C_k     0.71; C_l     0.58; C_m     0.80; C_n     0.35; C_o     0.75; C_p     0.89; C_q     0.71; C_r     0.57; C_s     0.70; C_t     0.54; 
@             C_u     0.69; C_v     0.57; C_w     0.68; C_x     0.55; C_y     0.81; C_z     0.40; C_{     0.84; C_|     0.51; C_}     1.31; C_~     0.43; 
@    MULPOP    dipole moment & components:      9.6456;        3.5183      8.9810      0.0000
 -----------------------------------------------------------------------------
   9  Screening settings (-IFTHRS, JTDIIS, DIFDEN, times)  -14    9    T  6.70D+00  6.71D+00
@  9    -1413.13692177        6.54468D-03   -6.84D-05    8
      Virial theorem: -V/T =      2.002042
@    MULPOP   C_a     0.67; C_b     0.57; C_c     0.66; C_d     0.57; C_e     0.69; C_f     0.55; C_g     0.67; C_h     0.53; C_i     0.71; C_j     0.55; 
@             C_k     0.70; C_l     0.58; C_m     0.80; C_n     0.35; C_o     0.75; C_p     0.89; C_q     0.71; C_r     0.57; C_s     0.70; C_t     0.54; 
@             C_u     0.68; C_v     0.57; C_w     0.68; C_x     0.55; C_y     0.82; C_z     0.40; C_{     0.84; C_|     0.51; C_}     1.31; C_~     0.43; 
@    MULPOP    dipole moment & components:      9.5018;        3.4680      8.8463      0.0000
 -----------------------------------------------------------------------------
  10  Screening settings (-IFTHRS, JTDIIS, DIFDEN, times)  -14   10    T  6.77D+00  6.79D+00
@ 10    -1413.13694127        4.18360D-03   -1.95D-05    8
      Virial theorem: -V/T =      2.002041
@    MULPOP   C_a     0.67; C_b     0.57; C_c     0.65; C_d     0.57; C_e     0.68; C_f     0.56; C_g     0.67; C_h     0.54; C_i     0.71; C_j     0.55; 
@             C_k     0.70; C_l     0.59; C_m     0.80; C_n     0.35; C_o     0.75; C_p     0.89; C_q     0.71; C_r     0.58; C_s     0.70; C_t     0.54; 
@             C_u     0.68; C_v     0.57; C_w     0.67; C_x     0.56; C_y     0.82; C_z     0.40; C_{     0.84; C_|     0.51; C_}     1.31; C_~     0.43; 
@    MULPOP    dipole moment & components:      9.3947;        3.4203      8.7499      0.0000
 -----------------------------------------------------------------------------
  11  Screening settings (-IFTHRS, JTDIIS, DIFDEN, times)  -14   11    T  6.48D+00  6.49D+00
@ 11    -1413.13695097        2.62074D-03   -9.70D-06    8
      Virial theorem: -V/T =      2.002042
@    MULPOP   C_a     0.67; C_b     0.57; C_c     0.65; C_d     0.58; C_e     0.68; C_f     0.56; C_g     0.67; C_h     0.54; C_i     0.70; C_j     0.55; 
@             C_k     0.70; C_l     0.59; C_m     0.79; C_n     0.36; C_o     0.75; C_p     0.89; C_q     0.71; C_r     0.58; C_s     0.69; C_t     0.54; 
@             C_u     0.68; C_v     0.57; C_w     0.67; C_x     0.56; C_y     0.81; C_z     0.40; C_{     0.84; C_|     0.51; C_}     1.31; C_~     0.43; 
@    MULPOP    dipole moment & components:      9.2992;        3.3768      8.6645      0.0000
 -----------------------------------------------------------------------------
  12  Screening settings (-IFTHRS, JTDIIS, DIFDEN, times)  -14   12    T  6.50D+00  6.55D+00
@ 12    -1413.13695580        1.01451D-03   -4.83D-06    8
      Virial theorem: -V/T =      2.002040
@    MULPOP   C_a     0.66; C_b     0.58; C_c     0.65; C_d     0.58; C_e     0.67; C_f     0.56; C_g     0.66; C_h     0.54; C_i     0.70; C_j     0.56; 
@             C_k     0.69; C_l     0.59; C_m     0.79; C_n     0.36; C_o     0.75; C_p     0.89; C_q     0.70; C_r     0.58; C_s     0.69; C_t     0.54; 
@             C_u     0.68; C_v     0.58; C_w     0.67; C_x     0.56; C_y     0.81; C_z     0.41; C_{     0.84; C_|     0.52; C_}     1.31; C_~     0.43; 
@    MULPOP    dipole moment & components:      9.2046;        3.3329      8.5801      0.0000
 -----------------------------------------------------------------------------
  13  Screening settings (-IFTHRS, JTDIIS, DIFDEN, times)  -14   13    T  6.33D+00  6.34D+00
@ 13    -1413.13695641        4.59228D-04   -6.03D-07    8
      Virial theorem: -V/T =      2.002041
@    MULPOP   C_a     0.66; C_b     0.58; C_c     0.64; C_d     0.58; C_e     0.67; C_f     0.56; C_g     0.66; C_h     0.55; C_i     0.70; C_j     0.56; 
@             C_k     0.69; C_l     0.59; C_m     0.79; C_n     0.36; C_o     0.75; C_p     0.89; C_q     0.70; C_r     0.58; C_s     0.69; C_t     0.55; 
@             C_u     0.68; C_v     0.58; C_w     0.67; C_x     0.56; C_y     0.81; C_z     0.41; C_{     0.83; C_|     0.52; C_}     1.31; C_~     0.43; 
@    MULPOP    dipole moment & components:      9.1705;        3.3178      8.5493      0.0000
 -----------------------------------------------------------------------------
  14  Screening settings (-IFTHRS, JTDIIS, DIFDEN, times)  -14   14    T  6.19D+00  6.19D+00
@ 14    -1413.13695647        2.19983D-04   -6.61D-08    8
      Virial theorem: -V/T =      2.002041
@    MULPOP   C_a     0.66; C_b     0.58; C_c     0.64; C_d     0.58; C_e     0.67; C_f     0.56; C_g     0.66; C_h     0.55; C_i     0.70; C_j     0.56; 
@             C_k     0.69; C_l     0.59; C_m     0.79; C_n     0.36; C_o     0.75; C_p     0.89; C_q     0.70; C_r     0.58; C_s     0.69; C_t     0.55; 
@             C_u     0.67; C_v     0.58; C_w     0.67; C_x     0.56; C_y     0.81; C_z     0.41; C_{     0.83; C_|     0.52; C_}     1.31; C_~     0.43; 
@    MULPOP    dipole moment & components:      9.1620;        3.3139      8.5417      0.0000
 -----------------------------------------------------------------------------
  15  Screening settings (-IFTHRS, JTDIIS, DIFDEN, times)  -14   15    T  6.10D+00  6.11D+00
@ 15    -1413.13695649        1.07686D-04   -1.43D-08    8
      Virial theorem: -V/T =      2.002041
@    MULPOP   C_a     0.66; C_b     0.58; C_c     0.64; C_d     0.58; C_e     0.67; C_f     0.56; C_g     0.66; C_h     0.55; C_i     0.70; C_j     0.56; 
@             C_k     0.69; C_l     0.59; C_m     0.79; C_n     0.36; C_o     0.75; C_p     0.89; C_q     0.70; C_r     0.58; C_s     0.69; C_t     0.55; 
@             C_u     0.67; C_v     0.58; C_w     0.67; C_x     0.56; C_y     0.81; C_z     0.41; C_{     0.83; C_|     0.52; C_}     1.31; C_~     0.43; 
@    MULPOP    dipole moment & components:      9.1585;        3.3122      8.5386      0.0000
 -----------------------------------------------------------------------------
  16  Screening settings (-IFTHRS, JTDIIS, DIFDEN, times)  -14   16    T  5.90D+00  5.92D+00
@ 16    -1413.13695649        4.74311D-05   -2.07D-09    8
      Virial theorem: -V/T =      2.002041
@    MULPOP   C_a     0.66; C_b     0.58; C_c     0.64; C_d     0.58; C_e     0.67; C_f     0.56; C_g     0.66; C_h     0.55; C_i     0.70; C_j     0.56; 
@             C_k     0.69; C_l     0.59; C_m     0.79; C_n     0.36; C_o     0.75; C_p     0.89; C_q     0.70; C_r     0.58; C_s     0.69; C_t     0.55; 
@             C_u     0.67; C_v     0.58; C_w     0.67; C_x     0.56; C_y     0.81; C_z     0.41; C_{     0.83; C_|     0.52; C_}     1.31; C_~     0.43; 
@    MULPOP    dipole moment & components:      9.1579;        3.3119      8.5380      0.0000
 -----------------------------------------------------------------------------
  17  Screening settings (-IFTHRS, JTDIIS, DIFDEN, times)  -14   17    T  5.84D+00  5.85D+00
@ 17    -1413.13695649        3.30158D-05   -7.38D-10    8
      Virial theorem: -V/T =      2.002041
@    MULPOP   C_a     0.66; C_b     0.58; C_c     0.64; C_d     0.58; C_e     0.67; C_f     0.56; C_g     0.66; C_h     0.55; C_i     0.70; C_j     0.56; 
@             C_k     0.69; C_l     0.59; C_m     0.79; C_n     0.36; C_o     0.75; C_p     0.89; C_q     0.70; C_r     0.58; C_s     0.69; C_t     0.55; 
@             C_u     0.67; C_v     0.58; C_w     0.67; C_x     0.56; C_y     0.81; C_z     0.41; C_{     0.83; C_|     0.52; C_}     1.31; C_~     0.43; 
@    MULPOP    dipole moment & components:      9.1576;        3.3117      8.5378      0.0000
 -----------------------------------------------------------------------------
  18  Screening settings (-IFTHRS, JTDIIS, DIFDEN, times)  -14   18    T  5.79D+00  5.79D+00
@ 18    -1413.13695649        1.49206D-05   -2.67D-10    8
      Virial theorem: -V/T =      2.002041
@    MULPOP   C_a     0.66; C_b     0.58; C_c     0.64; C_d     0.58; C_e     0.67; C_f     0.56; C_g     0.66; C_h     0.55; C_i     0.70; C_j     0.56; 
@             C_k     0.69; C_l     0.59; C_m     0.79; C_n     0.36; C_o     0.75; C_p     0.89; C_q     0.70; C_r     0.58; C_s     0.69; C_t     0.55; 
@             C_u     0.67; C_v     0.58; C_w     0.67; C_x     0.56; C_y     0.81; C_z     0.41; C_{     0.83; C_|     0.52; C_}     1.31; C_~     0.43; 
@    MULPOP    dipole moment & components:      9.1574;        3.3116      8.5376      0.0000
 -----------------------------------------------------------------------------
  19  Screening settings (-IFTHRS, JTDIIS, DIFDEN, times)  -14   19    T  5.75D+00  5.75D+00
@ 19    -1413.13695649        6.35847D-06   -7.32D-11    8

@ *** DIIS converged in  19 iterations !
@     Converged SCF energy, gradient:  -1413.136956490567    6.36D-06
    - total time used in SIRFCK :              0.00 seconds


 *** SCF orbital energy analysis ***

 Only the 20 lowest virtual orbital energies printed in each symmetry.

 Number of electrons :  242
 Orbital occupations :  121

 Sym       Hartree-Fock orbital energies

1 A     -20.59882306   -20.59597989   -15.84623078   -15.59813077   -11.30652077
        -11.29707523   -11.29555632   -11.28574972   -11.27774348   -11.27198073
        -11.26755195   -11.26740415   -11.26402326   -11.26335850   -11.26111808
        -11.26099182   -11.25870723   -11.25864734   -11.25654694   -11.25647053
        -11.25539167   -11.25448349   -11.25447049   -11.25263799   -11.25239659
        -11.25102046   -11.25033110   -11.25023213   -11.24785908   -11.24512394
        -11.24182918   -11.23774791   -11.23303484   -11.23069477    -1.58506004
         -1.38277888    -1.23784688    -1.14789856    -1.13394757    -1.12592196
         -1.11911131    -1.11201256    -1.10350179    -1.09308466    -1.08081124
         -1.06679669    -1.05113391    -1.03390124    -1.01517912    -0.99506025
         -0.97370269    -0.95200861    -0.93820243    -0.89716055    -0.87325804
         -0.84921596    -0.82618109    -0.80623926    -0.79167224    -0.78685407
         -0.77875074    -0.77471870    -0.76950515    -0.76560092    -0.75999268
         -0.75794440    -0.74890383    -0.74722045    -0.73772439    -0.71601208
         -0.71502148    -0.69759214    -0.67943661    -0.67770413    -0.67309269
         -0.66256247    -0.65660113    -0.64508016    -0.64122793    -0.62730653
         -0.62186161    -0.61164884    -0.60251362    -0.59613636    -0.58585636
         -0.57509268    -0.57277669    -0.56150821    -0.55579631    -0.55120453
         -0.54225178    -0.54042547    -0.53460197    -0.52817026    -0.52717131
         -0.52272314    -0.52195060    -0.51801744    -0.51370395    -0.50962923
         -0.50551860    -0.50121295    -0.50081504    -0.49499192    -0.48991974
         -0.48216160    -0.48167712    -0.47895457    -0.47236217    -0.46058547
         -0.44611526    -0.44055865    -0.42890696    -0.40914660    -0.38682667
         -0.36204261    -0.33497652    -0.30601527    -0.27597440    -0.24646963
         -0.21972837     0.00069608     0.02215416     0.02697105     0.02708772
          0.03013018     0.03071733     0.03296486     0.03393193     0.03806267
          0.03849521     0.04170615     0.04466759     0.04809714     0.05214457
          0.05550458     0.05581832     0.06051967     0.06436737     0.06967223
          0.07447964

    E(LUMO) :     0.00069608 au (symmetry 1)
  - E(HOMO) :    -0.21972837 au (symmetry 1)
  ------------------------------------------
    gap     :     0.22042445 au

 --- Writing SIRIFC interface file

 CPU and wall time for SCF :     321.293     321.765


                       .-----------------------------------.
                       | --- Final results from SIRIUS --- |
                       `-----------------------------------'


@    Spin multiplicity:           1
@    Spatial symmetry:            1 ( irrep  A   in C1  )
@    Total charge of molecule:    0

@    Final HF energy:           -1413.136956490567                 
@    Nuclear repulsion:          2233.399100428078
@    Electronic energy:         -3646.536056918645

@    Final gradient norm:           0.000006358466

 
     Date and time (Linux)  : Tue May 27 14:00:45 2025
     Host name              : xm059                                   

File label for MO orbitals:  27May25   FOCKDIIS

 (Only coefficients > 0.0100 are printed.)

 Molecular orbitals for symmetry species 1  (A  )
 ------------------------------------------------

    Orbital       112      113      114      115      116      117      118
   7 C_a :2pz    0.0078   0.1310  -0.1429  -0.1596   0.1196   0.1747  -0.1085
  13 C_a :2pz    0.0002   0.0040  -0.0054  -0.0079   0.0065   0.0140  -0.0144
  15 C_a :3d1-   0.0008  -0.0054  -0.0100   0.0041   0.0129  -0.0020  -0.0150
  30 C_b :2pz    0.0149   0.0277  -0.2002  -0.0422   0.1977   0.0508  -0.1950
  36 C_b :2pz    0.0003   0.0007  -0.0072  -0.0014   0.0133   0.0035  -0.0208
  38 C_b :3d1-   0.0003  -0.0100   0.0014   0.0125  -0.0018  -0.0146   0.0035
  53 C_c :2pz    0.0184  -0.1366  -0.1415   0.1658   0.1014  -0.1943  -0.0411
  59 C_c :2pz    0.0006  -0.0039  -0.0055   0.0074   0.0067  -0.0152  -0.0026
  61 C_c :3d1-   0.0001  -0.0090   0.0053   0.0101  -0.0084  -0.0100   0.0115
  76 C_d :2pz    0.0148  -0.1962  -0.0282   0.2041  -0.0422  -0.1887   0.1062
  82 C_d :2pz    0.0004  -0.0058  -0.0012   0.0100  -0.0042  -0.0150   0.0099
  84 C_d :3d1-  -0.0007  -0.0001   0.0112  -0.0044  -0.0115   0.0105   0.0079
  99 C_e :2pz    0.0032  -0.1779   0.1554   0.0832  -0.2074   0.0534   0.1708
 105 C_e :2pz    0.0000  -0.0054   0.0058   0.0040  -0.0118   0.0033   0.0180
 107 C_e :3d1-  -0.0007   0.0024   0.0095  -0.0089  -0.0057   0.0139  -0.0019
 122 C_f :2pz   -0.0060  -0.0960   0.2046  -0.0524  -0.1647   0.1722   0.0409
 128 C_f :2pz   -0.0001  -0.0029   0.0081  -0.0035  -0.0091   0.0142   0.0058
 130 C_f :3d1-  -0.0007   0.0098  -0.0020  -0.0105   0.0114   0.0023  -0.0151
 145 C_g :2pz   -0.0167   0.0716   0.1378  -0.2050   0.0677   0.1354  -0.2078
 151 C_g :2pz   -0.0004   0.0025   0.0042  -0.0084   0.0022   0.0119  -0.0234
 153 C_g :3d1-  -0.0006   0.0097  -0.0057  -0.0060   0.0131  -0.0062  -0.0088
 168 C_h :2pz   -0.0190   0.1611   0.0235  -0.1840   0.1773  -0.0091  -0.1673
 171 C_h :2pz    0.0009  -0.0104   0.0063  -0.0006  -0.0041   0.0067  -0.0075
 174 C_h :2pz   -0.0005   0.0048   0.0005  -0.0082   0.0113  -0.0019  -0.0178
 176 C_h :3d1-   0.0002   0.0040  -0.0111   0.0088   0.0024  -0.0133   0.0138
 191 C_i :2pz   -0.0148   0.2108  -0.1575  -0.0009   0.1573  -0.2097   0.1261
 197 C_i :2pz   -0.0003   0.0049  -0.0040  -0.0020   0.0112  -0.0175   0.0155
 199 C_i :3d1-   0.0003   0.0017  -0.0093   0.0114  -0.0048  -0.0067   0.0145
 214 C_j :2pz   -0.0075   0.1677  -0.2067   0.1263   0.0269  -0.1636   0.1993
 220 C_j :2pz   -0.0002   0.0055  -0.0084   0.0073  -0.0006  -0.0108   0.0190
 222 C_j :3d1-   0.0008  -0.0080   0.0017   0.0071  -0.0134   0.0127  -0.0045
 237 C_k :2pz    0.0059   0.0264  -0.1475   0.2095  -0.1904   0.0979   0.0325
 243 C_k :2pz    0.0001   0.0020  -0.0068   0.0110  -0.0122   0.0081   0.0018
 245 C_k :3d1-   0.0008  -0.0087   0.0052   0.0017  -0.0093   0.0137  -0.0118
 260 C_l :2pz    0.0135  -0.0815  -0.0355   0.1399  -0.1990   0.1913  -0.1144
 266 C_l :2pz    0.0005  -0.0044   0.0013   0.0033  -0.0085   0.0119  -0.0079
 268 C_l :3d1-   0.0004  -0.0079   0.0113  -0.0115   0.0077  -0.0005  -0.0078
 283 C_m :2pz    0.0198  -0.2014   0.1489  -0.0715  -0.0187   0.1068  -0.1767
 289 C_m :2pz    0.0005  -0.0061   0.0057  -0.0034  -0.0015   0.0091  -0.0192
 291 C_m :3d1-   0.0003  -0.0058   0.0094  -0.0117   0.0116  -0.0084   0.0024
 306 C_n :2pz    0.0182  -0.2099   0.2034  -0.1730   0.1194  -0.0468  -0.0363
 309 C_n :2pz   -0.0011   0.0119  -0.0108   0.0097  -0.0087   0.0080  -0.0080
 314 C_n :3d1-  -0.0005   0.0041  -0.0008  -0.0035   0.0083  -0.0128   0.0162
 319 C_n :3d1-  -0.0001   0.0013  -0.0002  -0.0018   0.0045  -0.0076   0.0108
 329 C_o :2pz    0.0096  -0.1276   0.1588  -0.1862   0.2075  -0.2201   0.2218
 335 C_o :2pz    0.0004  -0.0052   0.0075  -0.0107   0.0149  -0.0202   0.0269
 352 C_p :2pz   -0.0004  -0.0084   0.0317  -0.0582   0.0869  -0.1159   0.1426
 358 C_p :2pz    0.0004  -0.0054   0.0071  -0.0092   0.0119  -0.0159   0.0217
 360 C_p :3d1-  -0.0010   0.0121  -0.0139   0.0156  -0.0169   0.0177  -0.0179
 365 C_p :3d1-  -0.0001   0.0027  -0.0048   0.0068  -0.0088   0.0104  -0.0116
 375 C_q :2pz    0.0172   0.0612  -0.0741  -0.1803  -0.1984  -0.1079   0.0524
 381 C_q :2pz    0.0014   0.0016  -0.0032  -0.0094  -0.0136  -0.0093   0.0097
 383 C_q :3d1-   0.0005  -0.0081  -0.0112  -0.0092  -0.0020   0.0073   0.0141
 398 C_r :2pz    0.0169  -0.0527  -0.1679  -0.1937  -0.1103   0.0377   0.1649
 404 C_r :2pz    0.0010  -0.0035  -0.0087  -0.0112  -0.0079   0.0024   0.0167
 406 C_r :3d1-  -0.0005  -0.0088  -0.0027   0.0069   0.0138   0.0121   0.0008
 421 C_s :2pz    0.0074  -0.1868  -0.1763  -0.0320   0.1428   0.2050   0.0893
 427 C_s :2pz   -0.0007  -0.0048  -0.0060  -0.0012   0.0096   0.0180   0.0081
 429 C_s :3d1-  -0.0006  -0.0064   0.0020   0.0107   0.0123   0.0043  -0.0082
 444 C_t :2pz   -0.0020  -0.1937  -0.0818   0.1009   0.1995   0.1259  -0.0576
 450 C_t :2pz   -0.0000  -0.0058  -0.0024   0.0062   0.0137   0.0112  -0.0036
 452 C_t :3d1-  -0.0008   0.0051   0.0116   0.0083  -0.0042  -0.0146  -0.0108
 467 C_u :2pz   -0.0146  -0.0881   0.1177   0.2023   0.0632  -0.1526  -0.1905
 473 C_u :2pz    0.0002  -0.0037   0.0033   0.0092   0.0037  -0.0133  -0.0215
 475 C_u :3d1-  -0.0007   0.0072   0.0107   0.0025  -0.0102  -0.0131  -0.0016
 490 C_v :2pz   -0.0179   0.0238   0.1905   0.1363  -0.0806  -0.2015  -0.0800
 496 C_v :2pz   -0.0008   0.0012   0.0079   0.0064  -0.0060  -0.0174  -0.0114
 498 C_v :3d1-   0.0002   0.0094   0.0001  -0.0117  -0.0098   0.0063   0.0158
 503 C_v :3d1-   0.0001   0.0020   0.0001  -0.0046  -0.0050   0.0035   0.0103
 513 C_w :2pz   -0.0140   0.1722   0.1557  -0.0839  -0.2034  -0.0164   0.2000
 519 C_w :2pz   -0.0006   0.0055   0.0067  -0.0032  -0.0121  -0.0010   0.0241
 521 C_w :3d1-   0.0003   0.0076  -0.0042  -0.0122  -0.0029   0.0124   0.0109
 536 C_x :2pz   -0.0063   0.2019   0.0481  -0.1805  -0.1283   0.1253   0.1823
 542 C_x :2pz    0.0001   0.0061   0.0010  -0.0094  -0.0079   0.0110   0.0213
 544 C_x :3d1-   0.0008  -0.0030  -0.0115  -0.0017   0.0131   0.0068  -0.0129
 559 C_y :2pz   -0.0188  -0.0583   0.0055   0.0752   0.1419   0.1947   0.2208
 562 C_y :2pz    0.0168   0.0062   0.0056   0.0054   0.0058   0.0069   0.0085
 565 C_y :2pz    0.0011   0.0020   0.0037   0.0068   0.0121   0.0199   0.0291
 567 C_y :3d1-  -0.0003   0.0078   0.0104   0.0121   0.0125   0.0114   0.0089
 582 C_z :2pz   -0.0134   0.0539   0.1182   0.1676   0.1923   0.1870   0.1532
 588 C_z :2pz    0.0019  -0.0014   0.0018   0.0059   0.0103   0.0146   0.0188
 590 C_z :3d1-   0.0007   0.0089   0.0064   0.0017  -0.0046  -0.0113  -0.0165
 595 C_z :3d1-   0.0036   0.0021   0.0021   0.0006  -0.0028  -0.0076  -0.0122
 605 C_{ :2pz   -0.0016   0.1886   0.1953   0.1487   0.0547  -0.0641  -0.1711
 608 C_{ :2pz   -0.0041  -0.0030  -0.0043  -0.0055  -0.0066  -0.0081  -0.0104
 611 C_{ :2pz   -0.0009   0.0049   0.0070   0.0072   0.0034  -0.0069  -0.0240
 613 C_{ :3d1-   0.0009   0.0061   0.0017  -0.0042  -0.0099  -0.0136  -0.0140
 628 C_| :2pz    0.0071   0.1844   0.1271   0.0268  -0.0849  -0.1697  -0.1982
 634 C_| :2pz   -0.0010   0.0089   0.0077   0.0032  -0.0042  -0.0133  -0.0222
 636 C_| :3d1-   0.0006  -0.0062  -0.0111  -0.0128  -0.0093  -0.0008   0.0099
 651 C_} :2pz   -0.0231  -0.1899  -0.2048  -0.2154  -0.2195  -0.2143  -0.1963
 654 C_} :2pz    0.0105   0.0021   0.0008  -0.0008  -0.0027  -0.0049  -0.0071
 657 C_} :2pz    0.0028  -0.0129  -0.0147  -0.0168  -0.0193  -0.0221  -0.0240
 664 C_} :3d1-   0.0232  -0.0073  -0.0083  -0.0085  -0.0084  -0.0079  -0.0069
 666 C_} :3d1+  -0.0183  -0.0011  -0.0013  -0.0019  -0.0026  -0.0031  -0.0032
 674 C_~ :2pz   -0.0135  -0.1791  -0.1700  -0.1524  -0.1270  -0.0957  -0.0615
 677 C_~ :2pz   -0.0333   0.0059   0.0033   0.0001  -0.0023  -0.0036  -0.0036
 682 C_~ :3d1-   0.0005   0.0067   0.0096   0.0125   0.0151   0.0169   0.0172
 689 C_~ :3d1+  -0.0134   0.0007   0.0008   0.0008   0.0009   0.0011   0.0014
 697 N_a :2pz   -0.0137   0.1593  -0.1682   0.1746  -0.1789   0.1808  -0.1794
 700 N_a :2pz   -0.0011   0.0137  -0.0154   0.0170  -0.0186   0.0202  -0.0215
 703 N_a :2pz   -0.0017   0.0206  -0.0240   0.0277  -0.0319   0.0367  -0.0425
 720 N_b :2pz   -0.0061   0.0160   0.0123   0.0072   0.0011  -0.0055  -0.0113
 726 N_b :2pz    0.0007   0.0103   0.0095   0.0082   0.0067   0.0051   0.0039
 728 N_b :3d1-   0.0282  -0.0055  -0.0067  -0.0073  -0.0076  -0.0076  -0.0071
 730 N_b :3d1+  -0.0494  -0.0053  -0.0045  -0.0044  -0.0044  -0.0043  -0.0040
 743 O_a :2pz   -0.6365   0.0371   0.0563   0.0634   0.0669   0.0673   0.0637
 746 O_a :2pz   -0.0497   0.0018   0.0034   0.0042   0.0048   0.0052   0.0054
 749 O_a :2pz   -0.0645   0.0004   0.0031   0.0050   0.0068   0.0085   0.0094
 751 O_a :3d1-  -0.0122   0.0007   0.0010   0.0010   0.0009   0.0008   0.0006
 756 O_a :3d1-  -0.0267   0.0017   0.0024   0.0026   0.0026   0.0025   0.0023
 758 O_a :3d1+   0.0126   0.0002  -0.0001  -0.0001  -0.0001  -0.0001  -0.0001
 766 O_b :2pz    0.6490   0.0819   0.0707   0.0695   0.0688   0.0666   0.0614
 769 O_b :2pz    0.0508   0.0051   0.0045   0.0049   0.0054   0.0058   0.0058
 772 O_b :2pz    0.0658   0.0041   0.0037   0.0046   0.0059   0.0072   0.0081
 776 O_b :3d1+   0.0139   0.0020   0.0017   0.0015   0.0014   0.0012   0.0009
 781 O_b :3d1+   0.0289   0.0030   0.0024   0.0023   0.0022   0.0021   0.0019

    Orbital       119      120      121      122      123      124      125
   2 C_a :1s     0.0000  -0.0000   0.0000  -0.0000  -0.0022   0.0000  -0.0232
   3 C_a :1s     0.0000   0.0000  -0.0000   0.0000  -0.0006  -0.0000   0.1545
   4 C_a :1s    -0.0000  -0.0000   0.0000   0.0000   0.4139  -0.0000   7.5732
   5 C_a :2px   -0.0000   0.0000   0.0000   0.0000  -0.0020  -0.0000  -0.0157
   7 C_a :2pz   -0.1794  -0.1231  -0.2001  -0.1037  -0.0000  -0.1970   0.0000
   8 C_a :2px   -0.0000   0.0000   0.0000   0.0000   0.0546   0.0000   0.0100
   9 C_a :2py   -0.0000  -0.0000   0.0000   0.0000   0.0408  -0.0000  -0.1526
  10 C_a :2pz   -0.0052  -0.0105  -0.0136  -0.0100  -0.0000  -0.0284   0.0000
  11 C_a :2px    0.0000   0.0000  -0.0000  -0.0000  -0.1201   0.0000  -1.3075
  12 C_a :2py    0.0000   0.0000   0.0000   0.0000   3.1650  -0.0000  -0.6404
  13 C_a :2pz   -0.0259  -0.0362  -0.0537  -0.0638  -0.0000  -0.1887   0.0000
  15 C_a :3d1-  -0.0013  -0.0162  -0.0105   0.0158   0.0000   0.0101   0.0000
  19 C_a :3d2-   0.0000   0.0000   0.0000  -0.0000  -0.0119   0.0000   0.0474
  20 C_a :3d1-  -0.0017  -0.0117  -0.0087   0.0161  -0.0000   0.0107  -0.0000
  21 C_a :3d0    0.0000   0.0000  -0.0000  -0.0000  -0.0071  -0.0000  -0.0240
  23 C_a :3d2+   0.0000  -0.0000  -0.0000  -0.0000  -0.0434   0.0000   0.0485
  25 C_b :1s     0.0000   0.0000  -0.0000  -0.0000  -0.0020  -0.0000   0.0229
  26 C_b :1s     0.0000  -0.0000  -0.0000  -0.0000  -0.0068   0.0000  -0.0708
  27 C_b :1s     0.0000  -0.0000  -0.0000  -0.0000   0.2891   0.0000  -6.6962
  28 C_b :2px    0.0000   0.0000  -0.0000   0.0000   0.0018   0.0000  -0.0206
  30 C_b :2pz   -0.0635  -0.1923  -0.1384   0.1722   0.0000   0.1408   0.0000
  31 C_b :2px    0.0000  -0.0000  -0.0000  -0.0000  -0.0462   0.0000   0.0741
  32 C_b :2py    0.0000  -0.0000  -0.0000   0.0000   0.0555  -0.0000  -0.1427
  33 C_b :2pz   -0.0073  -0.0094  -0.0120   0.0205  -0.0000   0.0165  -0.0000
  34 C_b :2px    0.0000   0.0000  -0.0000  -0.0000   0.1759   0.0000  -1.2832
  35 C_b :2py    0.0000   0.0000  -0.0000   0.0000   3.4332  -0.0000   0.3129
  36 C_b :2pz   -0.0161  -0.0339  -0.0438   0.1293   0.0000   0.1138   0.0000
  38 C_b :3d1-   0.0158   0.0075   0.0175   0.0084   0.0000   0.0176  -0.0000
  42 C_b :3d2-  -0.0000  -0.0000  -0.0000   0.0000   0.0181  -0.0000  -0.0448
  43 C_b :3d1-   0.0112   0.0065   0.0143   0.0083  -0.0000   0.0185   0.0000
  44 C_b :3d0    0.0000  -0.0000   0.0000   0.0000  -0.0057   0.0000   0.0217
  46 C_b :3d2+   0.0000  -0.0000  -0.0000  -0.0000  -0.0431   0.0000   0.0206
  48 C_c :1s     0.0000  -0.0000   0.0000   0.0000  -0.0021   0.0000  -0.0173
  49 C_c :1s     0.0000   0.0000  -0.0000   0.0000   0.0157   0.0000   0.1195
  50 C_c :1s    -0.0000   0.0000   0.0000   0.0000   0.3165   0.0000   5.5744
  51 C_c :2px   -0.0000   0.0000   0.0000   0.0000  -0.0017  -0.0000  -0.0114
  53 C_c :2pz    0.2106   0.0492   0.2190   0.0833   0.0000   0.2000   0.0000
  54 C_c :2px   -0.0000  -0.0000   0.0000   0.0000   0.0446  -0.0000   0.0073
  55 C_c :2py    0.0000  -0.0000  -0.0000   0.0000   0.0849   0.0000  -0.1359
  56 C_c :2pz    0.0089   0.0067   0.0151   0.0075  -0.0000   0.0273  -0.0000
  57 C_c :2px   -0.0000  -0.0000  -0.0000  -0.0000   0.0304  -0.0000  -0.9556
  58 C_c :2py   -0.0000   0.0000   0.0000  -0.0000   3.8097   0.0000  -0.8137
  59 C_c :2pz    0.0341   0.0206   0.0595   0.0476   0.0000   0.1847   0.0000
  61 C_c :3d1-   0.0092   0.0137   0.0126  -0.0139  -0.0000  -0.0144   0.0000
  65 C_c :3d2-  -0.0000   0.0000  -0.0000  -0.0000  -0.0268  -0.0000   0.0419
  66 C_c :3d1-   0.0067   0.0096   0.0103  -0.0140   0.0000  -0.0152  -0.0000
  67 C_c :3d0   -0.0000   0.0000  -0.0000  -0.0000  -0.0069  -0.0000  -0.0189
  69 C_c :3d2+   0.0000   0.0000  -0.0000  -0.0000  -0.0328   0.0000   0.0320
  71 C_d :1s    -0.0000   0.0000  -0.0000  -0.0000  -0.0009  -0.0000   0.0161
  72 C_d :1s     0.0000  -0.0000   0.0000  -0.0000  -0.0216   0.0000  -0.0472
  73 C_d :1s     0.0000  -0.0000  -0.0000  -0.0000   0.1217  -0.0000  -4.7329
  74 C_d :2px    0.0000   0.0000   0.0000  -0.0000   0.0012   0.0000  -0.0144
  76 C_d :2pz    0.1548   0.1513   0.1633  -0.1499  -0.0000  -0.1825  -0.0000
  77 C_d :2px    0.0000   0.0000  -0.0000  -0.0000  -0.0638   0.0000   0.0496
  78 C_d :2py    0.0000  -0.0000  -0.0000   0.0000   0.0788   0.0000  -0.1217
  79 C_d :2pz    0.0095   0.0057   0.0134  -0.0179   0.0000  -0.0226   0.0000
  80 C_d :2px    0.0000   0.0000  -0.0000   0.0000  -0.0880  -0.0000  -0.8940
  81 C_d :2py    0.0000   0.0000   0.0000   0.0000   3.4950  -0.0000   0.1657
  82 C_d :2pz    0.0267   0.0221   0.0495  -0.1115  -0.0000  -0.1550  -0.0000
  84 C_d :3d1-  -0.0160  -0.0011  -0.0188  -0.0066  -0.0000  -0.0173  -0.0000
  88 C_d :3d2-  -0.0000  -0.0000   0.0000   0.0000   0.0270  -0.0000  -0.0386
  89 C_d :3d1-  -0.0117  -0.0016  -0.0154  -0.0066  -0.0000  -0.0181   0.0000
  90 C_d :3d0    0.0000  -0.0000   0.0000   0.0000  -0.0038   0.0000   0.0153
  92 C_d :3d2+   0.0000   0.0000  -0.0000  -0.0000  -0.0222   0.0000   0.0124
  94 C_e :1s     0.0000  -0.0000   0.0000   0.0000  -0.0021   0.0000  -0.0123
  95 C_e :1s    -0.0000   0.0000  -0.0000  -0.0000   0.0281  -0.0000   0.0852
  96 C_e :1s     0.0000  -0.0000  -0.0000   0.0000   0.2969  -0.0000   3.9059
  99 C_e :2pz   -0.1770   0.0329  -0.2319  -0.0641  -0.0000  -0.1866  -0.0000
 100 C_e :2px   -0.0000  -0.0000   0.0000   0.0000   0.0311  -0.0000   0.0115
 101 C_e :2py    0.0000  -0.0000   0.0000   0.0000   0.0913   0.0000  -0.1142
 102 C_e :2pz   -0.0099  -0.0021  -0.0162  -0.0052   0.0000  -0.0241   0.0000
 103 C_e :2px    0.0000   0.0000  -0.0000  -0.0000  -0.1398   0.0000  -0.6405
 104 C_e :2py   -0.0000   0.0000  -0.0000   0.0000   4.0602  -0.0000  -0.7888
 105 C_e :2pz   -0.0317  -0.0024  -0.0641  -0.0340  -0.0000  -0.1653  -0.0000
 107 C_e :3d1-  -0.0144  -0.0094  -0.0144   0.0120   0.0000   0.0172  -0.0000
 111 C_e :3d2-  -0.0000   0.0000  -0.0000   0.0000  -0.0226  -0.0000   0.0356
 112 C_e :3d1-  -0.0098  -0.0061  -0.0117   0.0120  -0.0000   0.0180   0.0000
 113 C_e :3d0   -0.0000   0.0000  -0.0000  -0.0000  -0.0056   0.0000  -0.0142
 115 C_e :3d2+   0.0000   0.0000  -0.0000  -0.0000  -0.0294   0.0000   0.0187
 117 C_f :1s     0.0000   0.0000  -0.0000  -0.0000  -0.0018   0.0000   0.0107
 118 C_f :1s    -0.0000   0.0000   0.0000  -0.0000   0.0388   0.0000  -0.0277
 119 C_f :1s    -0.0000   0.0000   0.0000   0.0000   0.3454   0.0000  -3.2230
 122 C_f :2pz   -0.2004  -0.0892  -0.1854   0.1275  -0.0000   0.2069  -0.0000
 123 C_f :2px    0.0000   0.0000  -0.0000  -0.0000  -0.0094   0.0000   0.0320
[...]

       No.  Residual tot.,    conf., and orb.    Bnorm      Frequency 
      ----------------------------------------------------------------
         1    2.31831D-01  0.00D+00  2.32D-01  1.37D+02    0.00000D+00
         2    2.39877D-01  0.00D+00  2.40D-01  1.42D+02    1.51000D-02
         3    2.67322D-01  0.00D+00  2.67D-01  1.59D+02    3.02000D-02

 ** RSPCTL MICROITERATION NUMBER    7

       No.  Residual tot.,    conf., and orb.    Bnorm      Frequency 
      ----------------------------------------------------------------
         1    5.80529D-02  0.00D+00  5.81D-02  1.37D+02    0.00000D+00
         2    6.01366D-02  0.00D+00  6.01D-02  1.42D+02    1.51000D-02
         3    6.73650D-02  0.00D+00  6.74D-02  1.59D+02    3.02000D-02

 *** THE REQUESTED    3 SOLUTION VECTORS CONVERGED

 Convergence of RSP solution vectors, threshold = 1.00D-03
 ---------------------------------------------------------------
 (dimension of paired reduced space:   42)
 RSP solution vector no.    1; norm of residual   4.23D-04
 RSP solution vector no.    2; norm of residual   4.23D-04
 RSP solution vector no.    3; norm of residual   4.23D-04

 *** RSPCTL MICROITERATIONS CONVERGED

@ QRLRVE: SINGLET SOLUTION FOR SYMMETRY    1  ( A  )    LABEL   YDIPLEN     FREQUENCY   0.000000D+00

@ QRLRVE:  << XDIPLEN  ; YDIPLEN  >> (   0.00000):    -268.950681371    

@ QRLRVE:  << YDIPLEN  ; YDIPLEN  >> (   0.00000):     3127.89796094    

@ QRLRVE:  << ZDIPLEN  ; YDIPLEN  >> (   0.00000):   -7.701930428662E-14

@ QRLRVE: SINGLET SOLUTION FOR SYMMETRY    1  ( A  )    LABEL   YDIPLEN     FREQUENCY   0.151000D-01

@ QRLRVE:  << XDIPLEN  ; YDIPLEN  >> (   0.01510):    -276.377474546    

@ QRLRVE:  << YDIPLEN  ; YDIPLEN  >> (   0.01510):     3206.37462715    

@ QRLRVE:  << ZDIPLEN  ; YDIPLEN  >> (   0.01510):   -7.806321256078E-14

@ QRLRVE: SINGLET SOLUTION FOR SYMMETRY    1  ( A  )    LABEL   YDIPLEN     FREQUENCY   0.302000D-01

@ QRLRVE:  << XDIPLEN  ; YDIPLEN  >> (   0.03020):    -301.378143821    

@ QRLRVE:  << YDIPLEN  ; YDIPLEN  >> (   0.03020):     3470.61420716    

@ QRLRVE:  << ZDIPLEN  ; YDIPLEN  >> (   0.03020):   -8.159582844450E-14


 QRLRVE -- linear response calculation for symmetry  1  ( A  )
 QRLRVE -- operator label : ZDIPLEN 
 QRLRVE -- operator spin  :   0
 QRLRVE -- frequencies :  0.000000  0.015100  0.030200



 ---  SOLVING SETS OF LINEAR EQUATIONS FOR LINEAR RESPONSE PROPERTIES ---

 Operator symmetry = 1  ( A  ); triplet =   F


 ** RSPCTL MICROITERATION NUMBER    1

       No.  Residual tot.,    conf., and orb.    Bnorm      Frequency 
      ----------------------------------------------------------------
         1    4.41063D+00  0.00D+00  4.41D+00  1.20D+01    0.00000D+00
         2    4.41303D+00  0.00D+00  4.41D+00  1.21D+01    1.51000D-02
         3    4.42028D+00  0.00D+00  4.42D+00  1.21D+01    3.02000D-02

 ** RSPCTL MICROITERATION NUMBER    2

       No.  Residual tot.,    conf., and orb.    Bnorm      Frequency 
      ----------------------------------------------------------------
         1    9.71363D-01  0.00D+00  9.71D-01  1.26D+01    0.00000D+00
         2    9.73039D-01  0.00D+00  9.73D-01  1.26D+01    1.51000D-02
         3    9.78100D-01  0.00D+00  9.78D-01  1.27D+01    3.02000D-02

 ** RSPCTL MICROITERATION NUMBER    3

       No.  Residual tot.,    conf., and orb.    Bnorm      Frequency 
      ----------------------------------------------------------------
         1    1.96673D-01  0.00D+00  1.97D-01  1.26D+01    0.00000D+00
         2    1.97380D-01  0.00D+00  1.97D-01  1.26D+01    1.51000D-02
         3    1.99523D-01  0.00D+00  2.00D-01  1.27D+01    3.02000D-02

 ** RSPCTL MICROITERATION NUMBER    4

       No.  Residual tot.,    conf., and orb.    Bnorm      Frequency 
      ----------------------------------------------------------------
         1    5.87146D-02  0.00D+00  5.87D-02  1.26D+01    0.00000D+00
         2    5.92446D-02  0.00D+00  5.92D-02  1.26D+01    1.51000D-02
         3    6.08776D-02  0.00D+00  6.09D-02  1.27D+01    3.02000D-02

 ** RSPCTL MICROITERATION NUMBER    5

       No.  Residual tot.,    conf., and orb.    Bnorm      Frequency 
      ----------------------------------------------------------------
         1    1.97530D-02  0.00D+00  1.98D-02  1.26D+01    0.00000D+00
         2    2.00657D-02  0.00D+00  2.01D-02  1.26D+01    1.51000D-02
         3    2.10362D-02  0.00D+00  2.10D-02  1.27D+01    3.02000D-02

 ** RSPCTL MICROITERATION NUMBER    6

       No.  Residual tot.,    conf., and orb.    Bnorm      Frequency 
      ----------------------------------------------------------------
         1    6.97118D-03  0.00D+00  6.97D-03  1.26D+01    0.00000D+00
         2    7.13425D-03  0.00D+00  7.13D-03  1.26D+01    1.51000D-02
         3    7.64384D-03  0.00D+00  7.64D-03  1.27D+01    3.02000D-02

 *** THE REQUESTED    3 SOLUTION VECTORS CONVERGED

 Convergence of RSP solution vectors, threshold = 1.00D-03
 ---------------------------------------------------------------
 (dimension of paired reduced space:   36)
 RSP solution vector no.    1; norm of residual   5.53D-04
 RSP solution vector no.    2; norm of residual   5.65D-04
 RSP solution vector no.    3; norm of residual   6.02D-04

 *** RSPCTL MICROITERATIONS CONVERGED

@ QRLRVE: SINGLET SOLUTION FOR SYMMETRY    1  ( A  )    LABEL   ZDIPLEN     FREQUENCY   0.000000D+00

@ QRLRVE:  << XDIPLEN  ; ZDIPLEN  >> (   0.00000):    2.320522420519E-14

@ QRLRVE:  << YDIPLEN  ; ZDIPLEN  >> (   0.00000):   -6.506037697051E-14

@ QRLRVE:  << ZDIPLEN  ; ZDIPLEN  >> (   0.00000):     230.912454293    

@ QRLRVE: SINGLET SOLUTION FOR SYMMETRY    1  ( A  )    LABEL   ZDIPLEN     FREQUENCY   0.151000D-01

@ QRLRVE:  << XDIPLEN  ; ZDIPLEN  >> (   0.01510):    2.394666042789E-14

@ QRLRVE:  << YDIPLEN  ; ZDIPLEN  >> (   0.01510):   -6.572340530365E-14

@ QRLRVE:  << ZDIPLEN  ; ZDIPLEN  >> (   0.01510):     231.095643761    

@ QRLRVE: SINGLET SOLUTION FOR SYMMETRY    1  ( A  )    LABEL   ZDIPLEN     FREQUENCY   0.302000D-01

@ QRLRVE:  << XDIPLEN  ; ZDIPLEN  >> (   0.03020):    2.628307484807E-14

@ QRLRVE:  << YDIPLEN  ; ZDIPLEN  >> (   0.03020):   -6.792865031452E-14

@ QRLRVE:  << ZDIPLEN  ; ZDIPLEN  >> (   0.03020):     231.648273037    
 
 ======================================================================
 ---  L I N E A R   R E S P O N S E   F U N C T I O N S --- 
 ======================================================================

 The -<<A;B>>(omega_b) functions from vectors generated
 in a *QUADRA calculation of <<A;B,C>>(omega_b,omega_c)

 Note: the accuracy of off-diagonal elements will be linear
 in the convergence threshold THCLR =  1.00D-03


 Perturbation symmetry.     KSYMOP:           1
 Perturbation spin symmetry.TRPLET:           F
 Orbital variables.         KZWOPT:      114466
 Configuration variables.   KZCONF:           0
 Total number of variables. KZVAR :      114466

@ Singlet linear response function in a.u.

@ A operator, symmetry, frequency:   XDIPLEN    1 -0.000000
@ B operator, symmetry, frequency:   XDIPLEN    1  0.000000

@ Value of linear response -<<A;B>>(omega):     338.406882906422

@ Singlet linear response function in a.u.

@ A operator, symmetry, frequency:   YDIPLEN    1 -0.000000
@ B operator, symmetry, frequency:   XDIPLEN    1  0.000000

@ Value of linear response -<<A;B>>(omega):    -268.909069451389

@ Singlet linear response function in a.u.

@ A operator, symmetry, frequency:   ZDIPLEN    1 -0.000000
@ B operator, symmetry, frequency:   XDIPLEN    1  0.000000

@ Value of linear response -<<A;B>>(omega):       0.000000000000

@ Singlet linear response function in a.u.

@ A operator, symmetry, frequency:   XDIPLEN    1 -0.015100
@ B operator, symmetry, frequency:   XDIPLEN    1  0.015100

@ Value of linear response -<<A;B>>(omega):     339.397786659939

@ Singlet linear response function in a.u.

@ A operator, symmetry, frequency:   YDIPLEN    1 -0.015100
@ B operator, symmetry, frequency:   XDIPLEN    1  0.015100

@ Value of linear response -<<A;B>>(omega):    -276.335508715401

@ Singlet linear response function in a.u.

@ A operator, symmetry, frequency:   ZDIPLEN    1 -0.015100
@ B operator, symmetry, frequency:   XDIPLEN    1  0.015100

@ Value of linear response -<<A;B>>(omega):       0.000000000000

@ Singlet linear response function in a.u.

@ A operator, symmetry, frequency:   XDIPLEN    1 -0.000000
@ B operator, symmetry, frequency:   YDIPLEN    1  0.000000

@ Value of linear response -<<A;B>>(omega):    -268.950681370653

@ Singlet linear response function in a.u.

@ A operator, symmetry, frequency:   YDIPLEN    1 -0.000000
@ B operator, symmetry, frequency:   YDIPLEN    1  0.000000

@ Value of linear response -<<A;B>>(omega):    3127.897960938423

@ Singlet linear response function in a.u.

@ A operator, symmetry, frequency:   ZDIPLEN    1 -0.000000
@ B operator, symmetry, frequency:   YDIPLEN    1  0.000000

@ Value of linear response -<<A;B>>(omega):      -0.000000000000

@ Singlet linear response function in a.u.

@ A operator, symmetry, frequency:   XDIPLEN    1 -0.015100
@ B operator, symmetry, frequency:   YDIPLEN    1  0.015100

@ Value of linear response -<<A;B>>(omega):    -276.377474546272

@ Singlet linear response function in a.u.

@ A operator, symmetry, frequency:   YDIPLEN    1 -0.015100
@ B operator, symmetry, frequency:   YDIPLEN    1  0.015100

@ Value of linear response -<<A;B>>(omega):    3206.374627147526

@ Singlet linear response function in a.u.

@ A operator, symmetry, frequency:   ZDIPLEN    1 -0.015100
@ B operator, symmetry, frequency:   YDIPLEN    1  0.015100

@ Value of linear response -<<A;B>>(omega):      -0.000000000000

@ Singlet linear response function in a.u.

@ A operator, symmetry, frequency:   XDIPLEN    1 -0.000000
@ B operator, symmetry, frequency:   ZDIPLEN    1  0.000000

@ Value of linear response -<<A;B>>(omega):       0.000000000000

@ Singlet linear response function in a.u.

@ A operator, symmetry, frequency:   YDIPLEN    1 -0.000000
@ B operator, symmetry, frequency:   ZDIPLEN    1  0.000000

@ Value of linear response -<<A;B>>(omega):      -0.000000000000

@ Singlet linear response function in a.u.

@ A operator, symmetry, frequency:   ZDIPLEN    1 -0.000000
@ B operator, symmetry, frequency:   ZDIPLEN    1  0.000000

@ Value of linear response -<<A;B>>(omega):     230.912454293428

@ Singlet linear response function in a.u.

@ A operator, symmetry, frequency:   XDIPLEN    1 -0.015100
@ B operator, symmetry, frequency:   ZDIPLEN    1  0.015100

@ Value of linear response -<<A;B>>(omega):       0.000000000000

@ Singlet linear response function in a.u.

@ A operator, symmetry, frequency:   YDIPLEN    1 -0.015100
@ B operator, symmetry, frequency:   ZDIPLEN    1  0.015100

@ Value of linear response -<<A;B>>(omega):      -0.000000000000

@ Singlet linear response function in a.u.

@ A operator, symmetry, frequency:   ZDIPLEN    1 -0.015100
@ B operator, symmetry, frequency:   ZDIPLEN    1  0.015100

@ Value of linear response -<<A;B>>(omega):     231.095643760779


  Results from quadratic response calculation
 --------------------------------------------

@ B-freq = 0.000000  C-freq = 0.000000     beta(X;X,X) =     64.73319137
@ B-freq = 0.000000  C-freq = 0.000000     beta(Y;X,X) =   -827.74042651
@ B-freq = 0.000000  C-freq = 0.000000     beta(Z;X,X) =     -0.00000000
@ B-freq = 0.015100  C-freq = 0.000000     beta(X;X,X) =     68.56247745
@ B-freq = 0.015100  C-freq = 0.000000     beta(Y;X,X) =   -854.73646417
@ B-freq = 0.015100  C-freq = 0.000000     beta(Z;X,X) =     -0.00000000
@ B-freq = 0.000000  C-freq = 0.000000     beta(X;Y,X) = beta(Y,X,X)
@ B-freq = 0.000000  C-freq = 0.000000     beta(X;Y,X) =   -827.74076149
@ B-freq = 0.000000  C-freq = 0.000000     beta(Y;Y,X) =   2386.69909435
@ B-freq = 0.000000  C-freq = 0.000000     beta(Z;Y,X) =      0.00000000
@ B-freq = 0.015100  C-freq = 0.000000     beta(X;Y,X) =   -854.73681269
@ B-freq = 0.015100  C-freq = 0.000000     beta(Y;Y,X) =   2509.40404234
@ B-freq = 0.015100  C-freq = 0.000000     beta(Z;Y,X) =      0.00000000
@ B-freq = 0.000000  C-freq = 0.000000     beta(X;Z,X) = beta(Z,X,X)
@ B-freq = 0.000000  C-freq = 0.000000     beta(Y;Z,X) = beta(Z,Y,X)
@ B-freq = 0.000000  C-freq = 0.000000     beta(X;Z,X) =     -0.00000000
@ B-freq = 0.000000  C-freq = 0.000000     beta(Y;Z,X) =      0.00000000
@ B-freq = 0.000000  C-freq = 0.000000     beta(Z;Z,X) =     -3.79146143
@ B-freq = 0.015100  C-freq = 0.000000     beta(X;Z,X) =     -0.00000000
@ B-freq = 0.015100  C-freq = 0.000000     beta(Y;Z,X) =      0.00000000
@ B-freq = 0.015100  C-freq = 0.000000     beta(Z;Z,X) =     -3.74955891
@ B-freq = 0.000000  C-freq = 0.015100     beta(X;X,X) = beta(X,X,X)
@ B-freq = 0.000000  C-freq = 0.015100     beta(Y;X,X) = beta(Y,X,X)
@ B-freq = 0.000000  C-freq = 0.015100     beta(Z;X,X) = beta(Z,X,X)
@ B-freq = 0.015100  C-freq = 0.015100     beta(X;X,X) =     77.02384213
@ B-freq = 0.015100  C-freq = 0.015100     beta(Y;X,X) =   -934.30702236
@ B-freq = 0.015100  C-freq = 0.015100     beta(Z;X,X) =     -0.00000000
@ B-freq = 0.000000  C-freq = 0.015100     beta(X;Y,X) =   -836.06707448
@ B-freq = 0.000000  C-freq = 0.015100     beta(Y;Y,X) =   2094.81251907
@ B-freq = 0.000000  C-freq = 0.015100     beta(Z;Y,X) =      0.00000000
@ B-freq = 0.015100  C-freq = 0.015100     beta(X;Y,X) =   -871.52052482
@ B-freq = 0.015100  C-freq = 0.015100     beta(Y;Y,X) =   2320.40582401
@ B-freq = 0.015100  C-freq = 0.015100     beta(Z;Y,X) =      0.00000000
@ B-freq = 0.000000  C-freq = 0.015100     beta(X;Z,X) =     -0.00000000
@ B-freq = 0.000000  C-freq = 0.015100     beta(Y;Z,X) =      0.00000000
@ B-freq = 0.000000  C-freq = 0.015100     beta(Z;Z,X) =     -3.78265396
@ B-freq = 0.015100  C-freq = 0.015100     beta(X;Z,X) =     -0.00000000
@ B-freq = 0.015100  C-freq = 0.015100     beta(Y;Z,X) =      0.00000000
@ B-freq = 0.015100  C-freq = 0.015100     beta(Z;Z,X) =     -3.69461010
@ B-freq = 0.000000  C-freq = 0.000000     beta(X;X,Y) = beta(Y,X,X)
@ B-freq = 0.000000  C-freq = 0.000000     beta(Y;X,Y) = beta(Y,Y,X)
@ B-freq = 0.000000  C-freq = 0.000000     beta(Z;X,Y) = beta(Z,Y,X)
@ B-freq = 0.015100  C-freq = 0.000000     beta(X;X,Y) = beta(X,Y,X)
@ B-freq = 0.015100  C-freq = 0.000000     beta(Y;X,Y) = beta(Y,Y,X)
@ B-freq = 0.015100  C-freq = 0.000000     beta(Z;X,Y) = beta(Z,Y,X)
@ B-freq = 0.000000  C-freq = 0.000000     beta(X;Y,Y) = beta(Y,Y,X)
@ B-freq = 0.000000  C-freq = 0.000000     beta(X;Y,Y) =   2386.70104936
@ B-freq = 0.000000  C-freq = 0.000000     beta(Y;Y,Y) = 140990.97915419
@ B-freq = 0.000000  C-freq = 0.000000     beta(Z;Y,Y) =     -0.00000000
@ B-freq = 0.015100  C-freq = 0.000000     beta(X;Y,Y) =   2094.81455315
@ B-freq = 0.015100  C-freq = 0.000000     beta(Y;Y,Y) = 149306.53057323
@ B-freq = 0.015100  C-freq = 0.000000     beta(Z;Y,Y) =     -0.00000000
@ B-freq = 0.000000  C-freq = 0.000000     beta(X;Z,Y) = beta(Z,Y,X)
@ B-freq = 0.000000  C-freq = 0.000000     beta(Y;Z,Y) = beta(Z,Y,Y)
@ B-freq = 0.000000  C-freq = 0.000000     beta(X;Z,Y) =      0.00000000
@ B-freq = 0.000000  C-freq = 0.000000     beta(Y;Z,Y) =     -0.00000000
@ B-freq = 0.000000  C-freq = 0.000000     beta(Z;Z,Y) =    -30.66654321
@ B-freq = 0.015100  C-freq = 0.000000     beta(X;Z,Y) =      0.00000000
@ B-freq = 0.015100  C-freq = 0.000000     beta(Y;Z,Y) =     -0.00000000
@ B-freq = 0.015100  C-freq = 0.000000     beta(Z;Z,Y) =    -31.18223131
@ B-freq = 0.000000  C-freq = 0.015100     beta(X;X,Y) = beta(X,Y,X)
@ B-freq = 0.000000  C-freq = 0.015100     beta(Y;X,Y) = beta(Y,Y,X)
@ B-freq = 0.000000  C-freq = 0.015100     beta(Z;X,Y) = beta(Z,Y,X)
@ B-freq = 0.015100  C-freq = 0.015100     beta(X;X,Y) = beta(X,Y,X)
@ B-freq = 0.015100  C-freq = 0.015100     beta(Y;X,Y) = beta(Y,Y,X)
@ B-freq = 0.015100  C-freq = 0.015100     beta(Z;X,Y) = beta(Z,Y,X)
@ B-freq = 0.000000  C-freq = 0.015100     beta(X;Y,Y) = beta(X,Y,Y)
@ B-freq = 0.000000  C-freq = 0.015100     beta(Y;Y,Y) = beta(Y,Y,Y)
@ B-freq = 0.000000  C-freq = 0.015100     beta(Z;Y,Y) = beta(Z,Y,Y)
@ B-freq = 0.015100  C-freq = 0.015100     beta(X;Y,Y) =    909.63724244
@ B-freq = 0.015100  C-freq = 0.015100     beta(Y;Y,Y) = 168289.72856375
@ B-freq = 0.015100  C-freq = 0.015100     beta(Z;Y,Y) =     -0.00000000
@ B-freq = 0.000000  C-freq = 0.015100     beta(X;Z,Y) =      0.00000000
@ B-freq = 0.000000  C-freq = 0.015100     beta(Y;Z,Y) =     -0.00000000
@ B-freq = 0.000000  C-freq = 0.015100     beta(Z;Z,Y) =    -30.69455096
@ B-freq = 0.015100  C-freq = 0.015100     beta(X;Z,Y) =      0.00000000
@ B-freq = 0.015100  C-freq = 0.015100     beta(Y;Z,Y) =     -0.00000000
@ B-freq = 0.015100  C-freq = 0.015100     beta(Z;Z,Y) =    -31.76379994
@ B-freq = 0.000000  C-freq = 0.000000     beta(X;X,Z) = beta(Z,X,X)
@ B-freq = 0.000000  C-freq = 0.000000     beta(Y;X,Z) = beta(Z,Y,X)
@ B-freq = 0.000000  C-freq = 0.000000     beta(Z;X,Z) = beta(Z,Z,X)
@ B-freq = 0.015100  C-freq = 0.000000     beta(X;X,Z) = beta(X,Z,X)
@ B-freq = 0.015100  C-freq = 0.000000     beta(Y;X,Z) = beta(Y,Z,X)
@ B-freq = 0.015100  C-freq = 0.000000     beta(Z;X,Z) = beta(Z,Z,X)
@ B-freq = 0.000000  C-freq = 0.000000     beta(X;Y,Z) = beta(Z,Y,X)
@ B-freq = 0.000000  C-freq = 0.000000     beta(Y;Y,Z) = beta(Z,Y,Y)
@ B-freq = 0.000000  C-freq = 0.000000     beta(Z;Y,Z) = beta(Z,Z,Y)
@ B-freq = 0.015100  C-freq = 0.000000     beta(X;Y,Z) = beta(X,Z,Y)
@ B-freq = 0.015100  C-freq = 0.000000     beta(Y;Y,Z) = beta(Y,Z,Y)
@ B-freq = 0.015100  C-freq = 0.000000     beta(Z;Y,Z) = beta(Z,Z,Y)
@ B-freq = 0.000000  C-freq = 0.000000     beta(X;Z,Z) = beta(Z,Z,X)
@ B-freq = 0.000000  C-freq = 0.000000     beta(Y;Z,Z) = beta(Z,Z,Y)
@ B-freq = 0.000000  C-freq = 0.000000     beta(X;Z,Z) =     -3.79149006
@ B-freq = 0.000000  C-freq = 0.000000     beta(Y;Z,Z) =    -30.66625826
@ B-freq = 0.000000  C-freq = 0.000000     beta(Z;Z,Z) =      0.00000000
@ B-freq = 0.015100  C-freq = 0.000000     beta(X;Z,Z) =     -3.78268362
@ B-freq = 0.015100  C-freq = 0.000000     beta(Y;Z,Z) =    -30.69425613
@ B-freq = 0.015100  C-freq = 0.000000     beta(Z;Z,Z) =      0.00000000
@ B-freq = 0.000000  C-freq = 0.015100     beta(X;X,Z) = beta(X,Z,X)
@ B-freq = 0.000000  C-freq = 0.015100     beta(Y;X,Z) = beta(Y,Z,X)
@ B-freq = 0.000000  C-freq = 0.015100     beta(Z;X,Z) = beta(Z,Z,X)
@ B-freq = 0.015100  C-freq = 0.015100     beta(X;X,Z) = beta(X,Z,X)
@ B-freq = 0.015100  C-freq = 0.015100     beta(Y;X,Z) = beta(Y,Z,X)
@ B-freq = 0.015100  C-freq = 0.015100     beta(Z;X,Z) = beta(Z,Z,X)
@ B-freq = 0.000000  C-freq = 0.015100     beta(X;Y,Z) = beta(X,Z,Y)
@ B-freq = 0.000000  C-freq = 0.015100     beta(Y;Y,Z) = beta(Y,Z,Y)
@ B-freq = 0.000000  C-freq = 0.015100     beta(Z;Y,Z) = beta(Z,Z,Y)
@ B-freq = 0.015100  C-freq = 0.015100     beta(X;Y,Z) = beta(X,Z,Y)
@ B-freq = 0.015100  C-freq = 0.015100     beta(Y;Y,Z) = beta(Y,Z,Y)
@ B-freq = 0.015100  C-freq = 0.015100     beta(Z;Y,Z) = beta(Z,Z,Y)
@ B-freq = 0.000000  C-freq = 0.015100     beta(X;Z,Z) = beta(X,Z,Z)
@ B-freq = 0.000000  C-freq = 0.015100     beta(Y;Z,Z) = beta(Y,Z,Z)
@ B-freq = 0.000000  C-freq = 0.015100     beta(Z;Z,Z) = beta(Z,Z,Z)
@ B-freq = 0.015100  C-freq = 0.015100     beta(X;Z,Z) =     -3.80788961
@ B-freq = 0.015100  C-freq = 0.015100     beta(Y;Z,Z) =    -30.13822080
@ B-freq = 0.015100  C-freq = 0.015100     beta(Z;Z,Z) =      0.00000000

  Total CPU  time used in RESPONSE: 19 minutes  9 seconds
  Total wall time used in RESPONSE: 19 minutes  9 seconds


                   .-------------------------------------------.
                   | End of Dynamic Property Section (RESPONS) |
                   `-------------------------------------------'

  Total CPU  time used in DALTON: 25 minutes 52 seconds
  Total wall time used in DALTON: 25 minutes 53 seconds

 
     Date and time (Linux)  : Tue May 27 14:19:55 2025
     Host name              : xm059                                   
