

     ************************************************************************
     *************** Dalton - An Electronic Structure Program ***************
     ************************************************************************

    This is output from DALTON release Dalton2020.0 (2020)
         ( Web site: http://daltonprogram.org )

   ----------------------------------------------------------------------------

    NOTE:
     
    Dalton is an experimental code for the evaluation of molecular
    properties using (MC)SCF, DFT, CI, and CC wave functions.
    The authors accept no responsibility for the performance of
    the code or for the correctness of the results.
     
    The code (in whole or part) is provided under a licence and
    is not to be reproduced for further distribution without
    the written permission of the authors or their representatives.
     
    See the home page "http://daltonprogram.org" for further information.
     
    If results obtained with this code are published,
    the appropriate citations would be both of:
     
       K. Aidas, C. Angeli, K. L. Bak, V. Bakken, R. Bast,
       L. Boman, O. Christiansen, R. Cimiraglia, S. Coriani,
       P. Dahle, E. K. Dalskov, U. Ekstroem,
       T. Enevoldsen, J. J. Eriksen, P. Ettenhuber, B. Fernandez,
       L. Ferrighi, H. Fliegl, L. Frediani, K. Hald, A. Halkier,
       C. Haettig, H. Heiberg, T. Helgaker, A. C. Hennum,
       H. Hettema, E. Hjertenaes, S. Hoest, I.-M. Hoeyvik,
       M. F. Iozzi, B. Jansik, H. J. Aa. Jensen, D. Jonsson,
       P. Joergensen, J. Kauczor, S. Kirpekar,
       T. Kjaergaard, W. Klopper, S. Knecht, R. Kobayashi, H. Koch,
       J. Kongsted, A. Krapp, K. Kristensen, A. Ligabue,
       O. B. Lutnaes, J. I. Melo, K. V. Mikkelsen, R. H. Myhre,
       C. Neiss, C. B. Nielsen, P. Norman, J. Olsen,
       J. M. H. Olsen, A. Osted, M. J. Packer, F. Pawlowski,
       T. B. Pedersen, P. F. Provasi, S. Reine, Z. Rinkevicius,
       T. A. Ruden, K. Ruud, V. Rybkin, P. Salek, C. C. M. Samson,
       A. Sanchez de Meras, T. Saue, S. P. A. Sauer,
       B. Schimmelpfennig, K. Sneskov, A. H. Steindal,
       K. O. Sylvester-Hvid, P. R. Taylor, A. M. Teale,
       E. I. Tellgren, D. P. Tew, A. J. Thorvaldsen, L. Thoegersen,
       O. Vahtras, M. A. Watson, D. J. D. Wilson, M. Ziolkowski
       and H. Agren,
       "The Dalton quantum chemistry program system",
       WIREs Comput. Mol. Sci. 2014, 4:269–284 (doi: 10.1002/wcms.1172)
     
    and
     
       Dalton, a molecular electronic structure program,
       Release Dalton2020.0 (2020), see http://daltonprogram.org
   ----------------------------------------------------------------------------

    Authors in alphabetical order (Major contribution(s) in parenthesis):

  Kestutis Aidas,           Vilnius University,           Lithuania   (QM/MM)
  Celestino Angeli,         University of Ferrara,        Italy       (NEVPT2)
  Keld L. Bak,              UNI-C,                        Denmark     (AOSOPPA, non-adiabatic coupling, magnetic properties)
  Vebjoern Bakken,          University of Oslo,           Norway      (DALTON; geometry optimizer, symmetry detection)
  Radovan Bast,             UiT The Arctic U. of Norway,  Norway      (DALTON installation and execution frameworks)
  Pablo Baudin,             University of Valencia,       Spain       (Cholesky excitation energies)
  Linus Boman,              NTNU,                         Norway      (Cholesky decomposition and subsystems)
  Bruno N. Cabral Tenorio,  Technical Univ. of Denmark,   Denmark     (Lanczos-based CC methods)
  Ove Christiansen,         Aarhus University,            Denmark     (CC module)
  Renzo Cimiraglia,         University of Ferrara,        Italy       (NEVPT2)
  Sonia Coriani,            Technical Univ. of Denmark,   Denmark     (CC and RESPONS modules)
  Janusz Cukras,            University of Warsaw,         Poland      (MChD in RESPONS)
  Paal Dahle,               University of Oslo,           Norway      (Parallelization)
  Erik K. Dalskov,          UNI-C,                        Denmark     (SOPPA)
  Thomas Enevoldsen,        Univ. of Southern Denmark,    Denmark     (SOPPA)
  Janus J. Eriksen,         Aarhus University,            Denmark     (Polarizable embedding, TDA)
  Rasmus Faber,             Technical Univ. of Denmark,   Denmark     (Vib.avg. NMR w. SOPPA, parallel AO-SOPPA, CVS-CC and EOMCC)
  Tobias Fahleson,          KTH Stockholm,                Sweden      (Damped cubic response)
  Berta Fernandez,          U. of Santiago de Compostela, Spain       (Doublet spin, ESR in RESPONS)
  Lara Ferrighi,            Aarhus University,            Denmark     (PCM Cubic response)
  Heike Fliegl,             University of Oslo,           Norway      (CCSD(R12))
  Luca Frediani,            UiT The Arctic U. of Norway,  Norway      (PCM)
  Emmanuel Fromager,        Univ. Strasbourg,             France      (MC-srDFT)
  Bin Gao,                  UiT The Arctic U. of Norway,  Norway      (Gen1Int library)
  Andre S. P. Gomes,        CNRS/Universite de Lille,     France      (Frozen density embedding)
  Christof Haettig,         Ruhr-University Bochum,       Germany     (CC module)
  Kasper Hald,              Aarhus University,            Denmark     (CC module)
  Asger Halkier,            Aarhus University,            Denmark     (CC module)
  Frederik Beyer Hansen,    University of Copenhagen,     Denmark     (Parallel AO-SOPPA)
  Erik D. Hedegaard,        Univ. of Southern Denmark,    Denmark     (Polarizable embedding, QM/MM, and MC-srDFT)
  Hanne Heiberg,            University of Oslo,           Norway      (Geometry analysis, selected one-electron integrals)
  Trygve Helgaker,          University of Oslo,           Norway      (DALTON; ABACUS, ERI, DFT modules, London, and much more)
  Alf Christian Hennum,     University of Oslo,           Norway      (Parity violation)
  Hinne Hettema,            University of Auckland,       New Zealand (Quadratic response in RESPONS; SIRIUS supersymmetry)
  Eirik Hjertenaes,         NTNU,                         Norway      (Cholesky decomposition)
  Pi A. B. Haase,           University of Copenhagen,     Denmark     (Triplet AO-SOPPA)
  Maria Francesca Iozzi,    University of Oslo,           Norway      (RPA)
  Christoph Jacob           TU Braunschweig               Germany     (Frozen density embedding)
  Brano Jansik              Technical Univ. of Ostrava    Czech Rep.  (DFT cubic response)
  Hans Joergen Aa. Jensen,  Univ. of Southern Denmark,    Denmark     (DALTON; SIRIUS, RESPONS, ABACUS, MC-srDFT, and much more)
  Dan Jonsson,              UiT The Arctic U. of Norway,  Norway      (Cubic response in RESPONS module)
  Poul Joergensen,          Aarhus University,            Denmark     (RESPONS, ABACUS, and CC modules)
  Maciej Kaminski,          University of Warsaw,         Poland      (CPPh in RESPONS)
  Joanna Kauczor,           Linkoeping University,        Sweden      (Complex polarization propagator (CPP) module)
  Sheela Kirpekar,          Univ. of Southern Denmark,    Denmark     (Mass-velocity & Darwin integrals)
  Erik Kjellgren,           Univ. of Southern Denmark,    Denmark     (MC-srDFT)
  Wim Klopper,              KIT Karlsruhe,                Germany     (R12 code in CC, SIRIUS, and ABACUS modules)
  Stefan Knecht,            ETH Zurich,                   Switzerland (Parallel CI and MCSCF, MC-srDFT)
  Rika Kobayashi,           Australian National Univ.,    Australia   (DIIS in CC, London in MCSCF)
  Henrik Koch,              NTNU,                         Norway      (CC module, Cholesky decomposition)
  Jacob Kongsted,           Univ. of Southern Denmark,    Denmark     (Polarizable embedding, polarizable density embedding, QM/MM)
  Andrea Ligabue,           University of Modena,         Italy       (CTOCD, AOSOPPA)
  Nanna H. List             Univ. of Southern Denmark,    Denmark     (Polarizable embedding)
  Ola B. Lutnaes,           University of Oslo,           Norway      (DFT Hessian)
  Juan I. Melo,             University of Buenos Aires,   Argentina   (LRESC, Relativistic Effects on NMR Shieldings)
  Kurt V. Mikkelsen,        University of Copenhagen,     Denmark     (MC-SCRF and QM/MM)
  Rolf H. Myhre,            NTNU,                         Norway      (Subsystems and CC3)
  Christian Neiss,          Univ. Erlangen-Nuernberg,     Germany     (CCSD(R12))
  Christian B. Nielsen,     University of Copenhagen,     Denmark     (QM/MM)
  Patrick Norman,           KTH Stockholm,                Sweden      (Cubic response and complex frequency response in RESPONS)
  Jeppe Olsen,              Aarhus University,            Denmark     (SIRIUS CI/density modules)
  Jogvan Magnus H. Olsen,   Aarhus University,            Denmark     (Polarizable embedding and polarizable density embedding)
  Anders Osted,             Copenhagen University,        Denmark     (QM/MM)
  Martin J. Packer,         University of Sheffield,      UK          (SOPPA)
  Filip Pawlowski,          Kazimierz Wielki University,  Poland      (CC3)
  Morten N. Pedersen,       Univ. of Southern Denmark,    Denmark     (Polarizable embedding)
  Thomas B. Pedersen,       University of Oslo,           Norway      (Cholesky decomposition)
  Patricio F. Provasi,      University of Northeastern,   Argentina   (Analysis of coupling constants in localized orbitals)
  Peter Reinholdt,          Univ. of Southern Denmark,    Denmark     (Polarizable embedding and polarizable density embedding)
  Zilvinas Rinkevicius,     KTH Stockholm,                Sweden      (open-shell DFT, ESR)
  Elias Rudberg,            KTH Stockholm,                Sweden      (DFT grid and basis info)
  Torgeir A. Ruden,         University of Oslo,           Norway      (Numerical derivatives in ABACUS)
  Kenneth Ruud,             UiT The Arctic U. of Norway,  Norway      (DALTON; ABACUS magnetic properties and much more)
  Pawel Salek,              KTH Stockholm,                Sweden      (DALTON; DFT code)
  Claire C. M. Samson       University of Karlsruhe       Germany     (Boys localization, r12 integrals in ERI)
  Alfredo Sanchez de Meras, University of Valencia,       Spain       (CC module, Cholesky decomposition)
  Trond Saue,               Paul Sabatier University,     France      (direct Fock matrix construction)
  Stephan P. A. Sauer,      University of Copenhagen,     Denmark     (SOPPA(CCSD), SOPPA prop., AOSOPPA, vibrational g-factors)
  Bernd Schimmelpfennig,    Forschungszentrum Karlsruhe,  Germany     (AMFI module)
  Anna K. Schnack-Petersen, University of Copenhagen,     Denmark     (RPA(D) and HRPA(D) properties in AOSOPPA)
  Kristian Sneskov,         Aarhus University,            Denmark     (Polarizable embedding, QM/MM)
  Arnfinn H. Steindal,      UiT The Arctic U. of Norway,  Norway      (parallel QM/MM, polarizable embedding)
  Casper Steinmann,         Aalborg University,           Denmark     (QFIT, polarizable embedding)
  K. O. Sylvester-Hvid,     University of Copenhagen,     Denmark     (MC-SCRF)
  Peter R. Taylor,          VLSCI/Univ. of Melbourne,     Australia   (Symmetry handling ABACUS, integral transformation)
  Andrew M. Teale,          University of Nottingham,     England     (DFT-AC, DFT-D)
  David P. Tew,             University of Bristol,        England     (CCSD(R12))
  Julien Toulouse,          Sorbonne Univ.,               France      (MC-srDFT)
  Olav Vahtras,             KTH Stockholm,                Sweden      (Triplet response, spin-orbit, ESR, TDDFT, open-shell DFT)
  Lucas Visscher,           Vrije Universiteit Amsterdam, Netherlands (Frozen density embedding)
  David J. Wilson,          La Trobe University,          Australia   (DFT Hessian and DFT magnetizabilities)
  Hans Agren,               KTH Stockholm,                Sweden      (SIRIUS module, RESPONS, MC-SCRF solvation)
 --------------------------------------------------------------------------------

     Date and time (Linux)  : Fri May 30 02:14:05 2025
     Host name              : xm009                                   

 * Work memory size             :   131072000 = 1000.00 megabytes.

 * Directories for basis set searches:
   1) /gpfs/projects/rjh/adrian/summer2025/beta_projects/raw_data/NLO/dalton/hf/n15/dipole
   2) /gpfs/projects/rjh/adrian/dalton/build/basis


Compilation information
-----------------------

 Who compiled             | ahurtado
 Host                     | milan2
 System                   | Linux-5.14.0-427.42.1.el9_4.x86_64
 CMake generator          | Unix Makefiles
 Processor                | x86_64
 64-bit integers          | OFF
 MPI                      | ON
 Fortran compiler         | /gpfs/software/openmpi/milan/gcc13.2/4.1.6/bin/mpi
                          | f90
 Fortran compiler version | GNU Fortran (GCC) 13.2.0
 C compiler               | /gpfs/software/openmpi/milan/gcc13.2/4.1.6/bin/mpi
                          | cc
 C compiler version       | gcc (GCC) 13.2.0
 C++ compiler             | /gpfs/software/openmpi/milan/gcc13.2/4.1.6/bin/mpi
                          | cxx
 C++ compiler version     | unknown
 BLAS                     | /gpfs/software/intel/oneAPI/2024_2/mkl/2024.2/lib/
                          | intel64/libmkl_gf_lp64.so;/gpfs/software/intel/one
                          | API/2024_2/mkl/2024.2/lib/intel64/libmkl_sequentia
                          | l.so;/gpfs/software/intel/oneAPI/2024_2/mkl/2024.2
                          | /lib/intel64/libmkl_core.so;/usr/lib64/libpthread.
                          | a;/usr/lib64/libm.so
 LAPACK                   | /gpfs/software/intel/oneAPI/2024_2/mkl/2024.2/lib/
                          | intel64/libmkl_lapack95_lp64.a;/gpfs/software/inte
                          | l/oneAPI/2024_2/mkl/2024.2/lib/intel64/libmkl_gf_l
                          | p64.so
 Static linking           | OFF
 Last Git revision        | 66052b3af5ea7225e31178bf9a8b031913c72190
 Git branch               | (HEAD detached at Dalton2020.0)
 Configuration time       | 2025-04-10 16:02:31.569498

 * MPI parallel run using 576 processes.


   Content of the .dal input file
 ----------------------------------

**DALTON INPUT
.RUN RESPONSE
.DIRECT
**WAVE FUNCTIONS
.HF
**PROPERTIES
**RESPONSE
*QUADRA
.DIPLEN
.FREQUENCIES
2
0.0 0.0151
**END OF DALTON INPUT


   Content of the .mol file
 ----------------------------

BASIS
d-aug-cc-pVDZ
blah
blah
Atomtype=4 Angstrom Charge=0 Nosymmetry
Charge=6 Atoms=30
C_a 0.5087160023080569 0.5307419982654954 0.0
C_b -0.1499670011342733 1.740530998481664 0.0
C_c 0.5119900005433838 3.0154770012609258 0.0
C_d -0.14944499956657997 4.223794999958646 0.0
C_e 0.5087160023080569 5.5007790017622735 0.0
C_f -0.15645499949278127 6.70694700107899 0.0
C_g 0.496456998377322 7.986875000917598 0.0
C_h -0.17400999836435735 9.189824999531421 0.0
C_i 0.47132300178377173 10.474130998852887 0.0
C_j -0.2068789994133594 11.672133000043152 0.0
C_k 0.42695900169371165 12.963178002349462 0.0
C_l -0.2632879988783874 14.153069997653931 0.0
C_m 0.35120499794075105 15.455243998875314 0.0
C_n -0.36116400191834624 16.629613998899707 0.0
C_o 0.2148920018246646 17.950934002027175 0.0
C_p -0.5556280012510373 19.08327400155043 0.0
C_q 0.4403500003464234 -9.404932000765008 0.0
C_r -0.20688099970321575 -8.191118999452831 0.0
C_s 0.46789400225166755 -6.921341999667393 0.0
C_t -0.18363100098218124 -5.708749000539099 0.0
C_u 0.48693599966877055 -4.437578999956066 0.0
C_v -0.1673289984935738 -3.225871002086668 0.0
C_w 0.5002509978904859 -1.953576002504383 0.0
C_x -0.15619899943357543 -0.7427290024156055 0.0
C_y 0.32798999900043024 -14.37061399752873 0.0
C_z -0.29751000021963053 -13.151493999681502 0.0
C_{ 0.39785000052208785 -11.88837100114556 0.0
C_| -0.24155599790388085 -10.672447000812804 0.0
C_} 0.20156300157395496 -16.83078200143653 0.0
C_~ -0.40155999844483 -15.619834002585321 0.0
Charge=7 Atoms=2
N_a -0.09696999873757071 20.37312500014922 0.0
N_b -0.5807609976996594 -18.06222600205128 0.0
Charge=8 Atoms=2
O_a 0.07628000060859447 -19.110176000371915 0.0
O_b -1.8112740009723618 -17.986109998752045 0.0
Charge=1 Atoms=32
H_a 1.6086990009007216 0.5317860014008821 0.0
H_b -1.2501259987754347 1.7382580024415848 0.0
H_c 1.6119779998606896 3.0190289974521063 0.0
H_d -1.2496410025700835 4.218624001966738 0.0
H_e 1.6086899995963682 5.507636000681553 0.0
H_f -1.2566919978547957 6.697789002061642 0.0
H_g 1.5963839994375535 7.998350002351865 0.0
H_h -1.2742840020887138 9.174934000449117 0.0
H_i 1.571137002342437 10.492289000447794 0.0
H_j -1.3071659997300098 11.648617999958557 0.0
H_k 1.526492998714895 12.991507001604333 0.0
H_l -1.3634870023166756 14.115234001719507 0.0
H_m 1.4498889987755237 15.501239002505242 0.0
H_n -1.4603910020725315 16.563519998124995 0.0
H_o 1.3095540018532839 18.043885000393377 0.0
H_p -1.648976001347842 18.990835998155795 0.0
H_q 1.539988001856592 -9.416521997698926 0.0
H_r -1.3069210012650139 -8.182631002285456 0.0
H_s 1.5677139983881296 -6.927825002593033 0.0
H_t -1.2837070024696213 -5.704036000131253 0.0
H_u 1.5868459982652234 -4.440977000287169 0.0
H_v -1.267429998312446 -3.223699999662173 0.0
H_w 1.6002089981517185 -1.9546869994746403 0.0
H_x -1.256326997873736 -0.7427049989373296 0.0
H_y 1.4258090014748694 -14.4090960024184 0.0
H_z -1.397044002532586 -13.125649000587696 0.0
H_{ 1.497090002560339 -11.909379997880672 0.0
H_| -1.341505002152532 -10.657317998988228 0.0
H_} 1.2776720009705351 -17.01445999864679 0.0
H_~ -1.49798800041153 -15.5961169996841 0.0
H_ 0.8943369979554827 20.570428998319677 0.0
H_ -0.7362980017344588 21.15248999921393 0.0


       *******************************************************************
       *********** Output from DALTON general input processing ***********
       *******************************************************************

 --------------------------------------------------------------------------------
   Overall default print level:    0
   Print level for DALTON.STAT:    1

    Parallel calculation using MPI
    AO-direct calculation (in sections where implemented)
    HERMIT 1- and 2-electron integral sections will be executed
    "Old" integral transformation used (limited to max 255 basis functions)
    Wave function sections will be executed (SIRIUS module)
    Dynamic molecular response properties section will be executed (RESPONSE module)
 --------------------------------------------------------------------------------


   ****************************************************************************
   *************** Output of molecule and basis set information ***************
   ****************************************************************************


    The two title cards from your ".mol" input:
    ------------------------------------------------------------------------
 1: blah                                                                    
 2: blah                                                                    
    ------------------------------------------------------------------------

  Coordinates are entered in Angstrom and converted to atomic units.
          - Conversion factor : 1 bohr = 0.52917721 A

  Atomic type no.    1
  --------------------
  Nuclear charge:   6.00000
  Number of symmetry independent centers:   30
  Number of basis sets to read;    2
  Basis set file used for this atomic type with Z =   6 :
     "/gpfs/projects/rjh/adrian/dalton/build/basis/aug-cc-pVDZ"

  Atomic type no.    2
  --------------------
  Nuclear charge:   7.00000
  Number of symmetry independent centers:    2
  Number of basis sets to read;    2
  Basis set file used for this atomic type with Z =   7 :
     "/gpfs/projects/rjh/adrian/dalton/build/basis/aug-cc-pVDZ"

  Atomic type no.    3
  --------------------
  Nuclear charge:   8.00000
  Number of symmetry independent centers:    2
  Number of basis sets to read;    2
  Basis set file used for this atomic type with Z =   8 :
     "/gpfs/projects/rjh/adrian/dalton/build/basis/aug-cc-pVDZ"

  Atomic type no.    4
  --------------------
  Nuclear charge:   1.00000
  Number of symmetry independent centers:   32
  Number of basis sets to read;    2
  Basis set file used for this atomic type with Z =   1 :
     "/gpfs/projects/rjh/adrian/dalton/build/basis/aug-cc-pVDZ"


                         SYMGRP: Point group information
                         -------------------------------

@    Point group: C1 


                                 Isotopic Masses
                                 ---------------

                           C_a        12.000000
                           C_b        12.000000
                           C_c        12.000000
                           C_d        12.000000
                           C_e        12.000000
                           C_f        12.000000
                           C_g        12.000000
                           C_h        12.000000
                           C_i        12.000000
                           C_j        12.000000
                           C_k        12.000000
                           C_l        12.000000
                           C_m        12.000000
                           C_n        12.000000
                           C_o        12.000000
                           C_p        12.000000
                           C_q        12.000000
                           C_r        12.000000
                           C_s        12.000000
                           C_t        12.000000
                           C_u        12.000000
                           C_v        12.000000
                           C_w        12.000000
                           C_x        12.000000
                           C_y        12.000000
                           C_z        12.000000
                           C_{        12.000000
                           C_|        12.000000
                           C_}        12.000000
                           C_~        12.000000
                           N_a        14.003074
                           N_b        14.003074
                           O_a        15.994915
                           O_b        15.994915
                           H_a         1.007825
                           H_b         1.007825
                           H_c         1.007825
                           H_d         1.007825
                           H_e         1.007825
                           H_f         1.007825
                           H_g         1.007825
                           H_h         1.007825
                           H_i         1.007825
                           H_j         1.007825
                           H_k         1.007825
                           H_l         1.007825
                           H_m         1.007825
                           H_n         1.007825
                           H_o         1.007825
                           H_p         1.007825
                           H_q         1.007825
                           H_r         1.007825
                           H_s         1.007825
                           H_t         1.007825
                           H_u         1.007825
                           H_v         1.007825
                           H_w         1.007825
                           H_x         1.007825
                           H_y         1.007825
                           H_z         1.007825
                           H_{         1.007825
                           H_|         1.007825
                           H_}         1.007825
                           H_~         1.007825
                           H_         1.007825
                           H_        1.007825

                       Total mass:   452.246378 amu
                       Natural abundance:  70.550 %

 Center-of-mass coordinates (a.u.):   -0.011475   -0.312820    0.000000
 Center-of-mass coordinates (Angs):   -0.006072   -0.165537    0.000000


  Atoms and basis sets
  --------------------

  Number of atom types :    4
  Total number of atoms:   66

  Basis set used is "d-aug-cc-pVDZ" from the basis set library.

  label    atoms   charge   prim   cont     basis
  ----------------------------------------------------------------------
  C_         30    6.0000    44    32      [11s6p3d|5s4p3d]                                   
  N_          2    7.0000    44    32      [11s6p3d|5s4p3d]                                   
  O_          2    8.0000    44    32      [11s6p3d|5s4p3d]                                   
  H_         32    1.0000    15    13      [6s3p|4s3p]                                        
  ----------------------------------------------------------------------
  total:     66  242.0000  1976  1504
  ----------------------------------------------------------------------
  Spherical harmonic basis used.

  Threshold for neglecting AO integrals:  1.00D-12

  Max    interatomic separation is   40.2709 Angstrom (   76.1009 Bohr)
  between atoms   66 and   33, "H_  " and "O_a   ".

  Min HX interatomic separation is    1.0080 Angstrom (    1.9049 Bohr)

  Min YX interatomic separation is    1.2329 Angstrom (    2.3298 Bohr)


  Bond distances (Angstrom):
  --------------------------

                  atom 1     atom 2       distance
                  ------     ------       --------
  bond distance:  C_b        C_a          1.377481
  bond distance:  C_c        C_b          1.436549
  bond distance:  C_d        C_c          1.377508
  bond distance:  C_e        C_d          1.436615
  bond distance:  C_f        C_e          1.377423
  bond distance:  C_g        C_f          1.436840
  bond distance:  C_h        C_g          1.377176
  bond distance:  C_i        C_h          1.437323
  bond distance:  C_j        C_i          1.376651
  bond distance:  C_k        C_j          1.438245
  bond distance:  C_l        C_k          1.375603
  bond distance:  C_m        C_l          1.439882
  bond distance:  C_n        C_m          1.373541
  bond distance:  C_o        C_n          1.441432
  bond distance:  C_p        C_o          1.369633
  bond distance:  C_r        C_q          1.375591
  bond distance:  C_s        C_r          1.437934
  bond distance:  C_t        C_s          1.376542
  bond distance:  C_u        C_t          1.437196
  bond distance:  C_v        C_u          1.377062
  bond distance:  C_w        C_v          1.436801
  bond distance:  C_x        C_a          1.436607
  bond distance:  C_x        C_w          1.377344
  bond distance:  C_z        C_y          1.370220
  bond distance:  C_{        C_z          1.441876
  bond distance:  C_|        C_q          1.439302
  bond distance:  C_|        C_{          1.373794
  bond distance:  C_~        C_y          1.446649
  bond distance:  C_~        C_}          1.352831
  bond distance:  N_a        C_p          1.368971
  bond distance:  N_b        C_}          1.458933
  bond distance:  O_a        N_b          1.236892
  bond distance:  O_b        N_b          1.232865
  bond distance:  H_a        C_a          1.099983
  bond distance:  H_b        C_b          1.100161
  bond distance:  H_c        C_c          1.099994
  bond distance:  H_d        C_d          1.100208
  bond distance:  H_e        C_e          1.099995
  bond distance:  H_f        C_f          1.100275
  bond distance:  H_g        C_g          1.099987
  bond distance:  H_h        C_h          1.100375
  bond distance:  H_i        C_i          1.099964
  bond distance:  H_j        C_j          1.100538
  bond distance:  H_k        C_k          1.099899
  bond distance:  H_l        C_l          1.100849
  bond distance:  H_m        C_m          1.099646
  bond distance:  H_n        C_n          1.101212
  bond distance:  H_o        C_o          1.098601
  bond distance:  H_p        C_p          1.097249
  bond distance:  H_q        C_q          1.099699
  bond distance:  H_r        C_r          1.100073
  bond distance:  H_s        C_s          1.099839
  bond distance:  H_t        C_t          1.100086
  bond distance:  H_u        C_u          1.099915
  bond distance:  H_v        C_v          1.100103
  bond distance:  H_w        C_w          1.099959
  bond distance:  H_x        C_x          1.100128
  bond distance:  H_y        C_y          1.098493
  bond distance:  H_z        C_z          1.099838
  bond distance:  H_{        C_{          1.099441
  bond distance:  H_|        C_|          1.100053
  bond distance:  H_}        C_}          1.091672
  bond distance:  H_~        C_~          1.096684
  bond distance:  H_        N_a          1.010751
  bond distance:  H_       N_a          1.008043


  Bond angles (degrees):
  ----------------------

                  atom 1     atom 2     atom 3         angle
                  ------     ------     ------         -----
  bond angle:     C_b        C_a        C_x          123.863
  bond angle:     C_b        C_a        H_a          118.512
  bond angle:     C_x        C_a        H_a          117.625
  bond angle:     C_a        C_b        C_c          123.995
  bond angle:     C_a        C_b        H_b          118.448
  bond angle:     C_c        C_b        H_b          117.557
  bond angle:     C_b        C_c        C_d          123.865
  bond angle:     C_b        C_c        H_c          117.624
  bond angle:     C_d        C_c        H_c          118.511
  bond angle:     C_c        C_d        C_e          124.037
  bond angle:     C_c        C_d        H_d          118.427
  bond angle:     C_e        C_d        H_d          117.536
  bond angle:     C_d        C_e        C_f          123.858
  bond angle:     C_d        C_e        H_e          117.624
  bond angle:     C_f        C_e        H_e          118.518
  bond angle:     C_e        C_f        C_g          124.098
  bond angle:     C_e        C_f        H_f          118.399
  bond angle:     C_g        C_f        H_f          117.504
  bond angle:     C_f        C_g        C_h          123.840
  bond angle:     C_f        C_g        H_g          117.625
  bond angle:     C_h        C_g        H_g          118.535
  bond angle:     C_g        C_h        C_i          124.188
  bond angle:     C_g        C_h        H_h          118.358
  bond angle:     C_i        C_h        H_h          117.454
  bond angle:     C_h        C_i        C_j          123.807
  bond angle:     C_h        C_i        H_i          117.624
  bond angle:     C_j        C_i        H_i          118.569
  bond angle:     C_i        C_j        C_k          124.337
  bond angle:     C_i        C_j        H_j          118.290
  bond angle:     C_k        C_j        H_j          117.373
  bond angle:     C_j        C_k        C_l          123.734
  bond angle:     C_j        C_k        H_k          117.625
  bond angle:     C_l        C_k        H_k          118.642
  bond angle:     C_k        C_l        C_m          124.620
  bond angle:     C_k        C_l        H_l          118.148
  bond angle:     C_m        C_l        H_l          117.232
  bond angle:     C_l        C_m        C_n          123.497
  bond angle:     C_l        C_m        H_m          117.660
  bond angle:     C_n        C_m        H_m          118.844
  bond angle:     C_m        C_n        C_o          125.203
  bond angle:     C_m        C_n        H_n          117.800
  bond angle:     C_o        C_n        H_n          116.997
  bond angle:     C_n        C_o        C_p          122.210
  bond angle:     C_n        C_o        H_o          118.409
  bond angle:     C_p        C_o        H_o          119.380
  bond angle:     C_o        C_p        N_a          126.191
  bond angle:     C_o        C_p        H_p          119.401
  bond angle:     N_a        C_p        H_p          114.407
  bond angle:     C_r        C_q        C_|          123.653
  bond angle:     C_r        C_q        H_q          118.671
  bond angle:     C_|        C_q        H_q          117.676
  bond angle:     C_q        C_r        C_s          123.946
  bond angle:     C_q        C_r        H_r          118.510
  bond angle:     C_s        C_r        H_r          117.545
  bond angle:     C_r        C_s        C_t          123.764
  bond angle:     C_r        C_s        H_s          117.649
  bond angle:     C_t        C_s        H_s          118.587
  bond angle:     C_s        C_t        C_u          123.938
  bond angle:     C_s        C_t        H_t          118.495
  bond angle:     C_u        C_t        H_t          117.567
  bond angle:     C_t        C_u        C_v          123.821
  bond angle:     C_t        C_u        H_u          117.636
  bond angle:     C_v        C_u        H_u          118.544
  bond angle:     C_u        C_v        C_w          123.947
  bond angle:     C_u        C_v        H_v          118.480
  bond angle:     C_w        C_v        H_v          117.573
  bond angle:     C_v        C_w        C_x          123.850
  bond angle:     C_v        C_w        H_w          117.628
  bond angle:     C_x        C_w        H_w          118.522
  bond angle:     C_a        C_x        C_w          123.966
  bond angle:     C_a        C_x        H_x          117.569
  bond angle:     C_w        C_x        H_x          118.465
  bond angle:     C_z        C_y        C_~          122.554
  bond angle:     C_z        C_y        H_y          119.169
  bond angle:     C_~        C_y        H_y          118.278
  bond angle:     C_y        C_z        C_{          124.006
  bond angle:     C_y        C_z        H_z          118.508
  bond angle:     C_{        C_z        H_z          117.487
  bond angle:     C_z        C_{        C_|          123.429
  bond angle:     C_z        C_{        H_{          117.738
  bond angle:     C_|        C_{        H_{          118.833
  bond angle:     C_q        C_|        C_{          123.982
  bond angle:     C_q        C_|        H_|          117.492
  bond angle:     C_{        C_|        H_|          118.526
  bond angle:     C_~        C_}        N_b          121.097
  bond angle:     C_~        C_}        H_}          126.162
  bond angle:     N_b        C_}        H_}          112.741
  bond angle:     C_y        C_~        C_}          123.239
  bond angle:     C_y        C_~        H_~          119.046
  bond angle:     C_}        C_~        H_~          117.715
  bond angle:     C_p        N_a        H_          120.832
  bond angle:     C_p        N_a        H_         121.062
  bond angle:     H_        N_a        H_         118.106
  bond angle:     C_}        N_b        O_a          115.486
  bond angle:     C_}        N_b        O_b          118.888
  bond angle:     O_a        N_b        O_b          125.626




 Principal moments of inertia (u*A**2) and principal axes
 --------------------------------------------------------

   IA     163.817506          0.007878    0.999969    0.000000
   IB   67827.654029          0.999969   -0.007878    0.000000
   IC   67991.471534          0.000000    0.000000    1.000000


 Rotational constants
 --------------------

@    The molecule is planar.

               A                   B                   C

           3085.0122              7.4509              7.4330 MHz
            0.102905            0.000249            0.000248 cm-1


@  Nuclear repulsion energy : 2233.399100428078 Hartree


                     .---------------------------------------.
                     | Starting in Integral Section (HERMIT) |
                     `---------------------------------------'



 ***************************************************************************************
 ****************** Output from **INTEGRALS input processing (HERMIT) ******************
 ***************************************************************************************


 - Using defaults, no **INTEGRALS input found

 Default print level:        1

 Calculation of one-electron Hamiltonian integrals.

 Center of mass  (bohr):     -0.011474676929     -0.312820016859      0.000000000000
 Operator center (bohr):      0.000000000000      0.000000000000      0.000000000000
 Gauge origin    (bohr):      0.000000000000      0.000000000000      0.000000000000
 Dipole origin   (bohr):      0.000000000000      0.000000000000      0.000000000000


     ************************************************************************
     ************************** Output from HERINT **************************
     ************************************************************************



                      Nuclear contribution to dipole moments
                      --------------------------------------

                 au               Debye          C m (/(10**-30)

      x     -0.00004330        -0.00011006        -0.00036711
      y      0.00002825         0.00007180         0.00023951
      z      0.00000000         0.00000000         0.00000000


  Time used in ONEDRV     is       5.45 seconds
  Time used in HUCKEL     is       1.08 seconds
  Time used in OVERLAP    is       0.59 seconds
  Time used in POPOVLP    is       1.14 seconds
  Time used in R2         is       0.69 seconds
  Time used in R4         is       0.80 seconds
  Time used in DIPLEN     is       0.77 seconds
  Time used in QUADRUP    is       1.46 seconds
  Time used in KINENE     is       0.98 seconds
  Time used in GABGEN     is       4.39 seconds
  Total CPU  time used in HERMIT:  17.35 seconds
  Total wall time used in HERMIT:  26.33 seconds


                        .----------------------------------.
                        | End of Integral Section (HERMIT) |
                        `----------------------------------'



                   .--------------------------------------------.
                   | Starting in Wave Function Section (SIRIUS) |
                   `--------------------------------------------'



@ Primary orbitals are deleted during canonical orthonormalization
@   because of detected numerical linear dependence or too large coefficients.
@ Eigenvalue threshold for num. lin. dep. =  1.00D-06

@ 123 MO components are deleted in symmetry    1
 Overlap eigenvalues of the deleted orbitals:
  9.48D-07  9.46D-07  9.15D-07  8.58D-07  8.10D-07
  7.91D-07  7.43D-07  6.81D-07  6.52D-07  6.24D-07
  5.95D-07  5.54D-07  5.47D-07  5.33D-07  5.02D-07
  4.82D-07  4.48D-07  4.27D-07  3.98D-07  3.72D-07
  3.66D-07  3.40D-07  3.35D-07  3.35D-07  2.89D-07
  2.70D-07  2.64D-07  2.56D-07  2.41D-07  2.33D-07
  2.27D-07  2.15D-07  2.10D-07  1.93D-07  1.91D-07
  1.81D-07  1.66D-07  1.61D-07  1.54D-07  1.51D-07
  1.41D-07  1.38D-07  1.30D-07  1.26D-07  1.17D-07
  1.12D-07  1.00D-07  9.80D-08  8.90D-08  8.75D-08
  8.27D-08  7.98D-08  7.66D-08  7.07D-08  6.80D-08
  6.07D-08  5.52D-08  4.81D-08  4.48D-08  3.83D-08
  3.60D-08  3.31D-08  2.95D-08  2.92D-08  2.85D-08
  2.63D-08  2.48D-08  2.43D-08  2.35D-08  2.22D-08
  1.98D-08  1.85D-08  1.70D-08  1.70D-08  1.56D-08
  1.51D-08  1.41D-08  1.40D-08  1.33D-08  1.18D-08
  1.15D-08  1.12D-08  1.02D-08  9.87D-09  9.56D-09
  8.12D-09  7.81D-09  7.17D-09  6.90D-09  6.67D-09
  6.42D-09  6.18D-09  5.59D-09  5.37D-09  4.67D-09
  4.57D-09  4.41D-09  4.17D-09  3.81D-09  3.45D-09
  2.86D-09  2.64D-09  2.39D-09  2.29D-09  1.92D-09
  1.88D-09  1.69D-09  1.50D-09  1.45D-09  1.37D-09
  1.10D-09  9.22D-10  8.87D-10  8.03D-10  6.55D-10
  2.19D-10  1.86D-10  1.46D-10  1.12D-10  5.13D-11
  4.64D-11  7.31D-12  5.65D-12

 Max MO coeff. of last deleted MO & limit:  2.93D+02  1.00D+03

WARNING: Orbitals have been deleted because of numerical
   linear dependence although not requested in input.

 *** Output from Huckel module :

     Using EWMO model:          T
     Using EHT  model:          F
     Number of Huckel orbitals each symmetry:  202

 EWMO - Energy Weighted Maximum Overlap - is a Huckel type method,
        which normally is better than Extended Huckel Theory.
 Reference: Linderberg and Ohrn, Propagators in Quantum Chemistry (Wiley, 1973)

 Huckel EWMO eigenvalues for symmetry :  1
          -20.684753     -20.683498     -15.677080     -15.674960     -11.359418
          -11.359392     -11.359222     -11.359177     -11.358955     -11.358869
          -11.358774     -11.358279     -11.357491     -11.356516     -11.355404
          -11.354215     -11.353009     -11.351853     -11.350860     -11.348664
          -11.348020     -11.347329     -11.346712     -11.346203     -11.345813
          -11.345547     -11.345487     -11.345453     -11.345371     -11.345357
          -11.345264     -11.345249     -11.345181     -11.345177      -1.964049
           -1.792974      -1.790903      -1.786019      -1.776313      -1.759863
           -1.734941      -1.700402      -1.655928      -1.602077      -1.540229
           -1.473584      -1.443213      -1.395679      -1.320924      -1.244704
           -1.212890      -1.196939      -1.174637      -1.165822      -1.138892
           -1.098937      -1.093876      -1.053279      -1.021317      -1.002628
           -0.963387      -0.944684      -0.912048      -0.885728      -0.864035
           -0.852027      -0.837425      -0.821219      -0.811603      -0.785245
           -0.773057      -0.753942      -0.747002      -0.741859      -0.729073
           -0.699698      -0.695555      -0.678064      -0.668693      -0.667047
           -0.646775      -0.632272      -0.631024      -0.617404      -0.596616
           -0.596150      -0.587054      -0.585351      -0.560813      -0.559863
           -0.551682      -0.542237      -0.528809      -0.524270      -0.521889
           -0.509108      -0.504556      -0.495728      -0.493814      -0.492698
           -0.489789      -0.488775      -0.487617      -0.484431      -0.482480
           -0.479573      -0.477583      -0.477166      -0.474145      -0.473972
           -0.457048      -0.454765      -0.428620      -0.426528      -0.405074
           -0.398600      -0.385539      -0.373512      -0.370889      -0.361776
           -0.351565      -0.336028      -0.308348      -0.290464      -0.274062
           -0.259482      -0.246722      -0.235703      -0.229150      -0.226313
           -0.218424      -0.211898      -0.206594      -0.202373      -0.200878
           -0.199109      -0.196691      -0.195029      -0.194058      -0.190598
           -0.166740      -0.142717      -0.139028      -0.135733      -0.133586
           -0.132097      -0.131634      -0.131287      -0.130729      -0.130481
           -0.129886      -0.129805      -0.129613      -0.129339      -0.129238
           -0.128777      -0.128170      -0.128020      -0.127528      -0.127490
           -0.126852      -0.126449      -0.126338      -0.125987      -0.125880
           -0.125233      -0.124881      -0.124472      -0.124121      -0.123768
           -0.123598      -0.123200      -0.113023      -0.112311      -0.110173
           -0.108646      -0.106328      -0.104760      -0.102167      -0.101222
           -0.098245      -0.097478      -0.095001      -0.094203      -0.092421
           -0.091346      -0.090267      -0.089161      -0.088377      -0.087549
           -0.086801      -0.086253      -0.085671      -0.085129      -0.084963
           -0.084073      -0.083063      -0.082073      -0.081123      -0.080279
           -0.079641      -0.079330

 **********************************************************************
 *SIRIUS* a direct, restricted step, second order MCSCF program       *
 **********************************************************************

 
     Date and time (Linux)  : Fri May 30 02:17:34 2025
     Host name              : xm009                                   

 Title lines from ".mol" input file:
     blah                                                                    
     blah                                                                    

 Print level on unit LUPRI =   2 is   0
 Print level on unit LUW4  =   2 is   5

@    Restricted, closed shell Hartree-Fock calculation.

@    Time-dependent Hartree-Fock calculation (random phase approximation).
 Fock matrices are calculated directly and in parallel without use of integrals on disk.

 Initial molecular orbitals are obtained according to
 ".MOSTART EWMO  " input option

     Wave function specification
     ============================
@    Wave function type        --- HF ---
@    Number of closed shell electrons         242
@    Number of electrons in active shells       0
@    Total charge of the molecule               0

@    Spin multiplicity and 2 M_S                1         0
@    Total number of symmetries                 1 (point group: C1 )
@    Reference state symmetry                   1 (irrep name : A  )

     Orbital specifications
     ======================
@    Abelian symmetry species          All |    1
@                                          |  A  
                                       --- |  ---
@    Occupied SCF orbitals             121 |  121
@    Secondary orbitals               1260 | 1260
@    Total number of orbitals         1381 | 1381
@    Number of basis functions        1504 | 1504

     Optimization information
     ========================
@    Number of configurations                 1
@    Number of orbital rotations         152460
     ------------------------------------------
@    Total number of variables           152461

     Maximum number of Fock   iterations      0
     Maximum number of DIIS   iterations     60
     Maximum number of QC-SCF iterations     60
     Threshold for SCF convergence     1.00D-05

    INFORMATION: Switched to "new" integral transformation (from 1988 ;-) )
    because more than 255 basis functions.


 ***********************************************
 ***** DIIS acceleration of SCF iterations *****
 ***********************************************

 C1-DIIS algorithm; max error vectors =    8

 Iter      Total energy        Error norm    Delta(E)  DIIS dim.
 -----------------------------------------------------------------------------
   1  Screening settings (-IFTHRS, JTDIIS, DIFDEN, times)  -10    1    T  3.38D+01  3.39D+01
@  1    -1408.07698532        8.23915D+00   -1.41D+03    1
      Virial theorem: -V/T =      2.013334
@    MULPOP   C_a     0.42; C_b     0.47; C_c     0.37; C_d     0.42; C_e     0.41; C_f     0.53; C_g     0.36; C_h     0.39; C_i     0.33; C_j     0.53; 
@             C_k     0.45; C_l     0.61; C_m     0.34; C_n     0.78; C_o     0.10; C_p     1.01; C_q     0.34; C_r     0.45; C_s     0.44; C_t     0.41; 
@             C_u     0.45; C_v     0.50; C_w     0.39; C_x     0.43; C_y     0.51; C_z     0.52; C_{     0.54; C_|     0.58; C_}     0.96; C_~     0.35; 
@    MULPOP    dipole moment & components:     40.6722;        2.0199     40.6220      0.0000
   1  Level shift: doubly occupied orbital energies shifted by -2.00D-01
 -----------------------------------------------------------------------------
   2  Screening settings (-IFTHRS, JTDIIS, DIFDEN, times)  -10    2    T  3.05D+01  3.06D+01
@  2    -1412.50679291        2.98007D+00   -4.43D+00    2
      Virial theorem: -V/T =      2.000779
@    MULPOP   C_a     0.76; C_b     0.88; C_c     0.62; C_d     0.60; C_e     0.63; C_f     0.95; C_g     0.74; C_h     0.68; C_i     0.57; C_j     0.96; 
@             C_k     0.96; C_l     0.91; C_m     0.33; C_n     0.76; C_o     0.96; C_p    -0.33; C_q     0.92; C_r     0.51; C_s     0.78; C_t     0.74; 
@             C_u     0.78; C_v     0.65; C_w     0.71; C_x     0.62; C_y     0.64; C_z     0.41; C_{     0.92; C_|     0.87; C_}     0.37; C_~     0.18; 
@    MULPOP    dipole moment & components:     12.0724;        3.1774     11.6467      0.0000
   2  Level shift: doubly occupied orbital energies shifted by -1.00D-01
 -----------------------------------------------------------------------------
   3  Screening settings (-IFTHRS, JTDIIS, DIFDEN, times)  -10    3    T  3.00D+01  3.02D+01
@  3    -1413.03202661        1.08459D+00   -5.25D-01    3
      Virial theorem: -V/T =      2.001406
@    MULPOP   C_a     0.78; C_b     0.86; C_c     0.64; C_d     0.56; C_e     0.61; C_f     0.89; C_g     0.73; C_h     0.63; C_i     0.55; C_j     0.95; 
@             C_k     0.98; C_l     0.88; C_m     0.06; C_n     0.53; C_o     0.79; C_p    -0.27; C_q     0.98; C_r     0.48; C_s     0.75; C_t     0.74; 
@             C_u     0.75; C_v     0.59; C_w     0.70; C_x     0.62; C_y     0.47; C_z     0.18; C_{     0.91; C_|     0.91; C_}     0.62; C_~     0.04; 
@    MULPOP    dipole moment & components:     10.1041;        3.8004      9.3622      0.0000
   3  Level shift: doubly occupied orbital energies shifted by -5.00D-02
 -----------------------------------------------------------------------------
   4  Screening settings (-IFTHRS, JTDIIS, DIFDEN, times)  -10    4    T  3.04D+01  3.05D+01
@  4    -1413.11605714        3.39180D-01   -8.40D-02    4
      Virial theorem: -V/T =      2.002721
@    MULPOP   C_a     0.86; C_b     0.94; C_c     0.69; C_d     0.63; C_e     0.67; C_f     0.89; C_g     0.72; C_h     0.57; C_i     0.55; C_j     1.01; 
@             C_k     1.03; C_l     0.82; C_m    -0.18; C_n     0.17; C_o     0.66; C_p    -0.36; C_q     1.00; C_r     0.51; C_s     0.72; C_t     0.72; 
@             C_u     0.79; C_v     0.64; C_w     0.75; C_x     0.72; C_y     0.22; C_z    -0.08; C_{     1.01; C_|     0.98; C_}     0.36; C_~    -0.12; 
@    MULPOP    dipole moment & components:      8.2145;        4.4712      6.8911      0.0000
   4  Level shift: doubly occupied orbital energies shifted by -2.50D-02
 -----------------------------------------------------------------------------
   5  Screening settings (-IFTHRS, JTDIIS, DIFDEN, times)  -10    5    T  3.41D+01  3.43D+01
@  5    -12734.7548376        7.69830D+03   -1.13D+04    5
      Virial theorem: -V/T =     10.052824
@    MULPOP   C_a     1.04; C_b     1.08; C_c     0.74; C_d     0.66; C_e     0.87; C_f     1.05; C_g     0.65; C_h     0.55; C_i     0.69; C_j     0.99; 
@             C_k     0.99; C_l     1.06; C_m    -0.14; C_n    -0.18; C_o     0.34; C_p    -0.44; C_q     0.89; C_r     0.57; C_s     0.76; C_t     0.53; 
@             C_u     0.99; C_v     0.83; C_w     0.74; C_x     0.69; C_y     0.03; C_z    -0.27; C_{     1.13; C_|     0.89; C_}     0.30; C_~    -0.64; 
@    MULPOP    dipole moment & components:     19.6128;        5.3971     18.8555      0.0000
   5  Level shift: doubly occupied orbital energies shifted by -2.50D-02
 -----------------------------------------------------------------------------
   6  Screening settings (-IFTHRS, JTDIIS, DIFDEN, times)  -10    6    F  3.41D+01  3.43D+01
@  6    -12672.8616611        7.64137D+03    6.19D+01    6
      Virial theorem: -V/T =     10.008825
@    MULPOP   C_a     1.04; C_b     1.08; C_c     0.74; C_d     0.66; C_e     0.87; C_f     1.05; C_g     0.65; C_h     0.55; C_i     0.69; C_j     0.99; 
@             C_k     0.99; C_l     1.06; C_m    -0.14; C_n    -0.18; C_o     0.34; C_p    -0.44; C_q     0.89; C_r     0.57; C_s     0.76; C_t     0.53; 
@             C_u     0.99; C_v     0.83; C_w     0.74; C_x     0.69; C_y     0.03; C_z    -0.27; C_{     1.13; C_|     0.89; C_}     0.30; C_~    -0.64; 
@    MULPOP    dipole moment & components:     19.6128;        5.3971     18.8555      0.0000
   6  Level shift: doubly occupied orbital energies shifted by -2.50D-02
 -----------------------------------------------------------------------------
   7  Screening settings (-IFTHRS, JTDIIS, DIFDEN, times)  -10    7    F  3.40D+01  3.43D+01
@  7    -12672.8617172        7.64137D+03   -5.61D-05    7
      Virial theorem: -V/T =     10.008825
@    MULPOP   C_a     1.04; C_b     1.08; C_c     0.74; C_d     0.66; C_e     0.87; C_f     1.05; C_g     0.65; C_h     0.55; C_i     0.69; C_j     0.99; 
@             C_k     0.99; C_l     1.06; C_m    -0.14; C_n    -0.18; C_o     0.34; C_p    -0.44; C_q     0.89; C_r     0.57; C_s     0.76; C_t     0.53; 
@             C_u     0.99; C_v     0.83; C_w     0.74; C_x     0.69; C_y     0.03; C_z    -0.27; C_{     1.13; C_|     0.89; C_}     0.30; C_~    -0.64; 
@    MULPOP    dipole moment & components:     19.6128;        5.3971     18.8555      0.0000
   7  Level shift: doubly occupied orbital energies shifted by -2.50D-02
 -----------------------------------------------------------------------------
   8  Screening settings (-IFTHRS, JTDIIS, DIFDEN, times)  -10    8    F  3.42D+01  3.43D+01
@  8    -12672.8616411        7.64137D+03    7.61D-05    8
      Virial theorem: -V/T =     10.008825
@    MULPOP   C_a     1.04; C_b     1.08; C_c     0.74; C_d     0.66; C_e     0.87; C_f     1.05; C_g     0.65; C_h     0.55; C_i     0.69; C_j     0.99; 
@             C_k     0.99; C_l     1.06; C_m    -0.14; C_n    -0.18; C_o     0.34; C_p    -0.44; C_q     0.89; C_r     0.57; C_s     0.76; C_t     0.53; 
@             C_u     0.99; C_v     0.83; C_w     0.74; C_x     0.69; C_y     0.03; C_z    -0.27; C_{     1.13; C_|     0.89; C_}     0.30; C_~    -0.64; 
@    MULPOP    dipole moment & components:     19.6128;        5.3971     18.8555      0.0000
   8  Level shift: doubly occupied orbital energies shifted by -2.50D-02
 -----------------------------------------------------------------------------
   9  Screening settings (-IFTHRS, JTDIIS, DIFDEN, times)  -10    9    F  3.42D+01  3.43D+01
@  9    -12672.8616442        7.64137D+03   -3.08D-06    8
      Virial theorem: -V/T =     10.008825
@    MULPOP   C_a     1.04; C_b     1.08; C_c     0.74; C_d     0.66; C_e     0.87; C_f     1.05; C_g     0.65; C_h     0.55; C_i     0.69; C_j     0.99; 
@             C_k     0.99; C_l     1.06; C_m    -0.14; C_n    -0.18; C_o     0.34; C_p    -0.44; C_q     0.89; C_r     0.57; C_s     0.76; C_t     0.53; 
@             C_u     0.99; C_v     0.83; C_w     0.74; C_x     0.69; C_y     0.03; C_z    -0.27; C_{     1.13; C_|     0.89; C_}     0.30; C_~    -0.64; 
@    MULPOP    dipole moment & components:     19.6128;        5.3971     18.8555      0.0000
   9  Level shift: doubly occupied orbital energies shifted by -2.50D-02
 -----------------------------------------------------------------------------
  10  Screening settings (-IFTHRS, JTDIIS, DIFDEN, times)  -10   10    F  3.40D+01  3.42D+01
@ 10    -12672.8615936        7.64137D+03    5.05D-05    8
      Virial theorem: -V/T =     10.008825
@    MULPOP   C_a     1.04; C_b     1.08; C_c     0.74; C_d     0.66; C_e     0.87; C_f     1.05; C_g     0.65; C_h     0.55; C_i     0.69; C_j     0.99; 
@             C_k     0.99; C_l     1.06; C_m    -0.14; C_n    -0.18; C_o     0.34; C_p    -0.44; C_q     0.89; C_r     0.57; C_s     0.76; C_t     0.53; 
@             C_u     0.99; C_v     0.83; C_w     0.74; C_x     0.69; C_y     0.03; C_z    -0.27; C_{     1.13; C_|     0.89; C_}     0.30; C_~    -0.64; 
@    MULPOP    dipole moment & components:     19.6128;        5.3971     18.8555      0.0000
  10  Level shift: doubly occupied orbital energies shifted by -2.50D-02
 -----------------------------------------------------------------------------
  11  Screening settings (-IFTHRS, JTDIIS, DIFDEN, times)  -10   11    F  3.41D+01  3.43D+01
@ 11    -12671.4843992        7.64682D+03    1.38D+00    8
      Virial theorem: -V/T =     10.007848
@    MULPOP   C_a     1.04; C_b     1.08; C_c     0.74; C_d     0.66; C_e     0.87; C_f     1.05; C_g     0.65; C_h     0.55; C_i     0.69; C_j     0.99; 
@             C_k     0.99; C_l     1.06; C_m    -0.14; C_n    -0.17; C_o     0.34; C_p    -0.44; C_q     0.89; C_r     0.57; C_s     0.76; C_t     0.53; 
@             C_u     0.99; C_v     0.83; C_w     0.74; C_x     0.69; C_y     0.03; C_z    -0.27; C_{     1.13; C_|     0.89; C_}     0.30; C_~    -0.64; 
@    MULPOP    dipole moment & components:     19.6541;        5.3937     18.8996      0.0000
  11  Level shift: doubly occupied orbital energies shifted by -2.50D-02
 -----------------------------------------------------------------------------
  12  Screening settings (-IFTHRS, JTDIIS, DIFDEN, times)  -10   12    F  3.43D+01  3.45D+01
@ 12    -12741.6036236        7.41361D+03   -7.01D+01    8
      Virial theorem: -V/T =     10.057527
@    MULPOP   C_a     0.92; C_b     1.00; C_c     0.73; C_d     0.69; C_e     0.89; C_f     1.02; C_g     0.58; C_h     0.50; C_i     0.66; C_j     0.95; 
@             C_k     1.03; C_l     1.07; C_m    -0.06; C_n    -0.10; C_o     0.41; C_p    -0.38; C_q     0.88; C_r     0.54; C_s     0.78; C_t     0.59; 
@             C_u     0.98; C_v     0.79; C_w     0.65; C_x     0.56; C_y     0.08; C_z    -0.21; C_{     1.09; C_|     0.84; C_}     0.38; C_~    -0.56; 
@    MULPOP    dipole moment & components:     20.0971;        5.0474     19.4529      0.0000
  12  Level shift: doubly occupied orbital energies shifted by -2.50D-02
 -----------------------------------------------------------------------------
  13  Screening settings (-IFTHRS, JTDIIS, DIFDEN, times)  -10   13    F  3.46D+01  3.48D+01
@ 13    -58294.1922945        2.76191D+04   -4.56D+04    8
      Virial theorem: -V/T =     43.863831
@    MULPOP   C_a    -0.06; C_b    -0.43; C_c     0.60; C_d    -1.89; C_e    -0.05; C_f    -0.37; C_g     0.23; C_h    -0.01; C_i     0.42; C_j    -0.91; 
@             C_k    -0.17; C_l     0.13; C_m     0.27; C_n    -0.13; C_o    -0.73; C_p     0.77; C_q     0.34; C_r    -0.80; C_s    -0.46; C_t     1.17; 
@             C_u     0.51; C_v    -0.41; C_w    -0.70; C_x    -1.72; C_y    -2.43; C_z     0.75; C_{    -3.11; C_|     0.59; C_}     0.88; C_~     0.15; 
@    MULPOP    dipole moment & components:    226.9091;      -29.8977   -224.9308      0.0000
  13  Level shift: doubly occupied orbital energies shifted by -2.50D-02
 -----------------------------------------------------------------------------
  14  Screening settings (-IFTHRS, JTDIIS, DIFDEN, times)  -10   14    F  3.46D+01  3.48D+01
@ 14    -66115.2855640        2.75172D+04   -7.82D+03    8
      Virial theorem: -V/T =     49.634586
@    MULPOP   C_a    -0.21; C_b    -1.32; C_c     1.77; C_d    -1.98; C_e    -0.46; C_f     0.03; C_g     0.72; C_h    -0.13; C_i     0.25; C_j    -0.87; 
@             C_k    -1.93; C_l     0.22; C_m     0.88; C_n     0.09; C_o    -0.85; C_p     1.22; C_q     0.18; C_r    -0.58; C_s    -1.02; C_t     1.01; 
@             C_u     0.18; C_v    -0.41; C_w    -0.59; C_x    -2.91; C_y    -2.35; C_z     1.50; C_{    -3.04; C_|     0.21; C_}     1.18; C_~    -0.04; 
@    MULPOP    dipole moment & components:    212.2212;      -29.9943   -210.0908      0.0000
  14  Level shift: doubly occupied orbital energies shifted by -2.50D-02
 -----------------------------------------------------------------------------
  15  Screening settings (-IFTHRS, JTDIIS, DIFDEN, times)  -10   15    F  3.46D+01  3.48D+01
@ 15    -67112.8797653        2.78090D+04   -9.98D+02    8
      Virial theorem: -V/T =     50.346403
@    MULPOP   C_a    -0.71; C_b    -0.89; C_c     1.69; C_d    -2.03; C_e    -0.47; C_f     0.14; C_g     0.76; C_h    -0.24; C_i     0.19; C_j    -1.02; 
@             C_k    -1.80; C_l     0.15; C_m     1.15; C_n    -0.03; C_o    -0.86; C_p     1.11; C_q    -0.04; C_r    -0.22; C_s    -1.08; C_t     1.24; 
@             C_u     0.12; C_v    -0.51; C_w    -0.82; C_x    -2.69; C_y    -2.39; C_z     1.60; C_{    -3.32; C_|     0.17; C_}     1.44; C_~     0.08; 
@    MULPOP    dipole moment & components:    220.1047;      -30.0328   -218.0461      0.0000
  15  Level shift: doubly occupied orbital energies shifted by -2.50D-02
 -----------------------------------------------------------------------------
  16  Screening settings (-IFTHRS, JTDIIS, DIFDEN, times)  -10   16    F  3.46D+01  3.48D+01
@ 16    -71209.9457804        2.48201D+04   -4.10D+03    8
      Virial theorem: -V/T =     54.090634
@    MULPOP   C_a    -0.86; C_b    -0.28; C_c     1.15; C_d    -3.26; C_e     0.51; C_f     0.20; C_g     0.04; C_h    -0.15; C_i    -0.07; C_j    -1.15; 
@             C_k     0.26; C_l    -1.41; C_m     0.44; C_n     0.58; C_o    -0.30; C_p     0.88; C_q    -0.44; C_r    -0.36; C_s     0.07; C_t    -0.15; 
@             C_u     0.11; C_v    -1.63; C_w    -0.24; C_x    -1.32; C_y    -0.13; C_z     1.24; C_{    -2.49; C_|    -1.19; C_}     2.16; C_~    -1.01; 
@    MULPOP    dipole moment & components:    235.8374;      -18.4734   -235.1127      0.0000
  16  Level shift: doubly occupied orbital energies shifted by -2.50D-02
 -----------------------------------------------------------------------------
  17  Screening settings (-IFTHRS, JTDIIS, DIFDEN, times)  -10   17    F  3.47D+01  3.48D+01
@ 17    -75148.5388514        2.48355D+04   -3.94D+03    8
      Virial theorem: -V/T =     57.012266
@    MULPOP   C_a    -0.14; C_b    -0.06; C_c    -0.95; C_d    -0.71; C_e    -0.97; C_f    -1.29; C_g     0.31; C_h    -0.48; C_i     0.64; C_j    -0.50; 
@             C_k    -0.64; C_l    -2.57; C_m    -0.00; C_n     1.14; C_o     1.69; C_p    -0.26; C_q    -0.62; C_r     0.58; C_s    -1.15; C_t    -2.41; 
@             C_u    -2.36; C_v     0.65; C_w    -1.03; C_x    -0.01; C_y     0.65; C_z    -0.96; C_{    -0.66; C_|     1.05; C_}     1.04; C_~     1.17; 
@    MULPOP    dipole moment & components:    277.1937;      -21.5876   -276.3518      0.0000
  17  Level shift: doubly occupied orbital energies shifted by -2.50D-02
 -----------------------------------------------------------------------------
  18  Screening settings (-IFTHRS, JTDIIS, DIFDEN, times)  -10   18    F  3.47D+01  3.48D+01
@ 18    -75892.2502127        2.49229D+04   -7.44D+02    8
      Virial theorem: -V/T =     57.223775
@    MULPOP   C_a    -2.21; C_b    -0.75; C_c     0.34; C_d    -0.90; C_e    -1.56; C_f    -0.35; C_g    -1.68; C_h    -0.80; C_i     0.19; C_j    -1.36; 
@             C_k     0.88; C_l    -0.29; C_m    -2.06; C_n     0.99; C_o     1.50; C_p    -0.12; C_q    -1.34; C_r    -0.55; C_s    -0.20; C_t    -0.62; 
@             C_u    -1.83; C_v    -1.14; C_w    -0.51; C_x     1.38; C_y    -0.31; C_z     0.19; C_{    -0.96; C_|    -0.97; C_}     1.32; C_~     1.36; 
@    MULPOP    dipole moment & components:    269.5497;      -22.3618   -268.6205      0.0000
  18  Level shift: doubly occupied orbital energies shifted by -2.50D-02
 -----------------------------------------------------------------------------
  19  Screening settings (-IFTHRS, JTDIIS, DIFDEN, times)  -10   19    F  3.47D+01  3.49D+01
@ 19    -75888.0781536        2.49221D+04    4.17D+00    8
      Virial theorem: -V/T =     57.220156
@    MULPOP   C_a    -2.23; C_b    -0.76; C_c     0.36; C_d    -0.91; C_e    -1.58; C_f    -0.33; C_g    -1.67; C_h    -0.81; C_i     0.15; C_j    -1.31; 
@             C_k     0.84; C_l    -0.23; C_m    -2.09; C_n     0.98; C_o     1.50; C_p    -0.11; C_q    -1.32; C_r    -0.60; C_s    -0.24; C_t    -0.59; 
@             C_u    -1.84; C_v    -1.17; C_w    -0.48; C_x     1.38; C_y    -0.27; C_z     0.13; C_{    -0.97; C_|    -0.91; C_}     1.35; C_~     1.33; 
@    MULPOP    dipole moment & components:    269.7304;      -22.3063   -268.8064      0.0000
  19  Level shift: doubly occupied orbital energies shifted by -2.50D-02
 -----------------------------------------------------------------------------
  20  Screening settings (-IFTHRS, JTDIIS, DIFDEN, times)  -10   20    F  3.47D+01  3.48D+01
@ 20    -84728.5313329        2.53646D+04   -8.84D+03    8
      Virial theorem: -V/T =     63.651351
@    MULPOP   C_a    -0.37; C_b    -0.66; C_c    -0.79; C_d    -1.24; C_e    -1.22; C_f    -1.14; C_g    -0.93; C_h    -0.56; C_i     0.39; C_j    -0.11; 
@             C_k     0.39; C_l    -2.14; C_m     0.08; C_n    -0.32; C_o     1.40; C_p     0.05; C_q    -0.79; C_r    -0.12; C_s    -0.09; C_t    -0.58; 
@             C_u    -1.68; C_v    -1.13; C_w    -0.34; C_x    -0.66; C_y     0.41; C_z    -0.20; C_{    -1.23; C_|    -0.44; C_}     0.64; C_~     0.84; 
@    MULPOP    dipole moment & components:    246.7754;      -19.5434   -246.0003      0.0000
  20  Level shift: doubly occupied orbital energies shifted by -2.50D-02
 -----------------------------------------------------------------------------
  21  Screening settings (-IFTHRS, JTDIIS, DIFDEN, times)  -10   21    F  3.47D+01  3.48D+01
@ 21    -120255.872368        1.24713D+04   -3.55D+04    8
      Virial theorem: -V/T =     84.684401
@    MULPOP   C_a    -0.32; C_b     0.08; C_c    -0.31; C_d     0.14; C_e     0.12; C_f    -0.07; C_g     0.65; C_h     0.62; C_i     1.22; C_j    -0.31; 
@             C_k     2.29; C_l     0.51; C_m     0.71; C_n     0.12; C_o     0.56; C_p    -0.40; C_q     0.08; C_r     1.60; C_s     1.08; C_t     0.55; 
@             C_u     0.60; C_v     0.50; C_w    -0.01; C_x     0.50; C_y    -0.49; C_z    -1.99; C_{    -1.84; C_|    -1.44; C_}    -5.15; C_~    -1.60; 
@    MULPOP    dipole moment & components:   1062.3628;       16.3738   1062.2366      0.0000
  21  Level shift: doubly occupied orbital energies shifted by -1.25D-02
 -----------------------------------------------------------------------------
  22  Screening settings (-IFTHRS, JTDIIS, DIFDEN, times)  -10   22    F  3.47D+01  3.49D+01
@ 22    -127012.077354        7.96190D+03   -6.76D+03    8
      Virial theorem: -V/T =     92.323299
@    MULPOP   C_a    -0.15; C_b    -3.69; C_c    -3.19; C_d    -1.65; C_e    -2.06; C_f    -1.96; C_g    -1.86; C_h    -2.64; C_i    -3.81; C_j    -2.72; 
@             C_k    -4.20; C_l    -3.90; C_m     0.11; C_n     0.40; C_o     0.77; C_p    -2.62; C_q     1.11; C_r     1.87; C_s     0.37; C_t    -6.33; 
@             C_u     0.29; C_v     3.42; C_w    -5.44; C_x    -0.64; C_y     1.47; C_z     1.31; C_{     0.85; C_|     1.31; C_}     1.36; C_~     2.08; 
@    MULPOP    dipole moment & components:   1230.6861;      -30.3425  -1230.3120      0.0000
  22  Level shift: doubly occupied orbital energies shifted by -1.25D-02
 -----------------------------------------------------------------------------
  23  Screening settings (-IFTHRS, JTDIIS, DIFDEN, times)  -10   23    F  3.47D+01  3.48D+01
@ 23    -128443.883062        1.68349D+03   -1.43D+03    8
      Virial theorem: -V/T =     91.940288
@    MULPOP   C_a    -0.58; C_b    -0.18; C_c    -0.20; C_d     0.18; C_e    -0.34; C_f     0.38; C_g     0.63; C_h     1.40; C_i     1.73; C_j     1.39; 
@             C_k     1.41; C_l     0.68; C_m     1.06; C_n     1.34; C_o     2.05; C_p     0.69; C_q    -5.35; C_r    -4.84; C_s    -2.47; C_t    -0.95; 
@             C_u     0.43; C_v    -0.12; C_w     0.55; C_x     0.47; C_y     1.80; C_z    -4.75; C_{    -6.90; C_|    -7.11; C_}    -3.04; C_~     0.58; 
@    MULPOP    dipole moment & components:   1040.4966;      -19.0567   1040.3221      0.0000
 -----------------------------------------------------------------------------
  24  Screening settings (-IFTHRS, JTDIIS, DIFDEN, times)  -10   24    F  3.46D+01  3.48D+01
@ 24    -128386.997011        1.85390D+03    5.69D+01    8
      Virial theorem: -V/T =    101.196180
@    MULPOP   C_a    -0.82; C_b    -0.06; C_c    -0.59; C_d    -0.29; C_e    -2.73; C_f    -0.94; C_g    -3.23; C_h    -1.24; C_i    -2.46; C_j    -4.88; 
@             C_k    -4.88; C_l    -6.19; C_m    -4.41; C_n    -4.41; C_o    -2.59; C_p    -7.15; C_q     3.26; C_r     3.66; C_s     1.25; C_t     0.86; 
@             C_u     0.35; C_v     0.49; C_w     0.63; C_x     0.62; C_y     2.06; C_z     3.50; C_{     3.29; C_|     3.53; C_}     0.94; C_~     1.81; 
@    MULPOP    dipole moment & components:   2424.4225;      -18.9686  -2424.3483      0.0000
 -----------------------------------------------------------------------------
  25  Screening settings (-IFTHRS, JTDIIS, DIFDEN, times)  -10   25    F  3.47D+01  3.49D+01
@ 25    -128437.153712        4.34507D+02   -5.02D+01    8
      Virial theorem: -V/T =    101.095871
@    MULPOP   C_a    -0.85; C_b    -0.21; C_c    -0.61; C_d     0.50; C_e    -0.41; C_f     0.14; C_g     0.89; C_h     1.47; C_i     1.81; C_j     3.46; 
@             C_k     3.59; C_l     3.16; C_m     3.66; C_n     3.85; C_o     4.09; C_p     2.94; C_q    -5.00; C_r    -7.61; C_s     2.23; C_t     0.78; 
@             C_u    -1.96; C_v    -0.90; C_w     0.63; C_x     0.68; C_y     2.62; C_z    -6.04; C_{    -7.91; C_|    -2.18; C_}    -4.19; C_~    -0.51; 
@    MULPOP    dipole moment & components:   2173.9220;       16.7312   2173.8576      0.0000
 -----------------------------------------------------------------------------
  26  Screening settings (-IFTHRS, JTDIIS, DIFDEN, times)  -10   26    F  3.46D+01  3.48D+01
@ 26    -127399.413045        2.19764D+02    1.04D+03    8
      Virial theorem: -V/T =    118.640444
@    MULPOP   C_a    -0.34; C_b    -0.03; C_c     0.13; C_d    -0.15; C_e    -0.18; C_f     0.47; C_g     0.89; C_h     0.41; C_i    -1.17; C_j    -7.98; 
@             C_k    -8.13; C_l   -11.46; C_m   -10.72; C_n   -10.92; C_o    -6.24; C_p   -11.24; C_q     3.47; C_r     3.94; C_s     3.56; C_t     0.90; 
@             C_u     0.77; C_v     0.80; C_w     0.86; C_x     0.60; C_y     4.09; C_z     3.83; C_{     3.63; C_|     4.00; C_}     3.25; C_~     4.49; 
@    MULPOP    dipole moment & components:   3649.1804;      -17.2662  -3649.1396      0.0000
 -----------------------------------------------------------------------------
  27  Screening settings (-IFTHRS, JTDIIS, DIFDEN, times)  -10   27    T  3.39D+01  3.41D+01
@ 27    -128936.788953        1.00262D+02   -1.54D+03    8
      Virial theorem: -V/T =     92.788574
@    MULPOP   C_a    -6.82; C_b    -3.84; C_c    -1.38; C_d    -3.86; C_e    -4.48; C_f    -2.99; C_g    -2.26; C_h     0.35; C_i     2.10; C_j     1.37; 
@             C_k     1.54; C_l     0.92; C_m     1.34; C_n     1.64; C_o     1.88; C_p     0.95; C_q     1.56; C_r     2.45; C_s    -6.41; C_t    -1.11; 
@             C_u    -2.61; C_v    -1.56; C_w    -4.05; C_x    -3.34; C_y     1.28; C_z     1.09; C_{     1.39; C_|     0.95; C_}    -5.46; C_~    -1.52; 
@    MULPOP    dipole moment & components:     99.0207;      -43.5640     88.9228      0.0000
 -----------------------------------------------------------------------------
  28  Screening settings (-IFTHRS, JTDIIS, DIFDEN, times)  -10   28    T  3.35D+01  3.37D+01
@ 28    -128775.550178        8.02420D+01    1.61D+02    8
      Virial theorem: -V/T =     89.350903
@    MULPOP   C_a    -0.78; C_b    -0.06; C_c    -0.25; C_d     0.01; C_e    -0.19; C_f     0.02; C_g     0.40; C_h     0.96; C_i     1.81; C_j     1.19; 
@             C_k     1.33; C_l     0.70; C_m     1.17; C_n     1.19; C_o     2.48; C_p    -0.10; C_q    -0.37; C_r     2.59; C_s     1.55; C_t     0.36; 
@             C_u     0.25; C_v     0.58; C_w     0.76; C_x     0.84; C_y     0.88; C_z    -1.58; C_{    -3.30; C_|    -2.53; C_}    -5.14; C_~     2.97; 
@    MULPOP    dipole moment & components:   1396.6242;       25.2757   1396.3955      0.0000
 -----------------------------------------------------------------------------
  29  Screening settings (-IFTHRS, JTDIIS, DIFDEN, times)  -10   29    T  3.36D+01  3.38D+01
@ 29    -128955.447042        4.22474D+01   -1.80D+02    8
      Virial theorem: -V/T =     93.272323
@    MULPOP   C_a    -1.01; C_b    -0.24; C_c    -0.62; C_d    -0.35; C_e     0.48; C_f    -0.42; C_g    -2.73; C_h    -2.31; C_i    -3.80; C_j    -2.41; 
@             C_k    -0.83; C_l    -0.96; C_m     0.12; C_n     0.61; C_o     0.33; C_p    -2.54; C_q    -4.79; C_r    -4.39; C_s    -2.24; C_t    -1.45; 
@             C_u    -1.58; C_v     0.49; C_w     0.57; C_x     0.70; C_y     1.97; C_z     1.73; C_{     0.81; C_|    -3.34; C_}     0.81; C_~     1.95; 
@    MULPOP    dipole moment & components:    639.3866;      -27.0019   -638.8162      0.0000
 -----------------------------------------------------------------------------
  30  Screening settings (-IFTHRS, JTDIIS, DIFDEN, times)  -10   30    T  3.37D+01  3.38D+01
@ 30    -129037.571466        2.51044D+01   -8.21D+01    8
      Virial theorem: -V/T =     93.933894
@    MULPOP   C_a    -4.56; C_b    -3.66; C_c    -1.68; C_d    -2.35; C_e    -2.01; C_f     1.03; C_g     0.91; C_h     0.95; C_i     2.00; C_j     1.38; 
@             C_k    -0.39; C_l    -2.41; C_m    -0.04; C_n     0.99; C_o     0.64; C_p    -2.66; C_q     1.28; C_r     1.68; C_s     1.15; C_t     0.99; 
@             C_u    -1.36; C_v    -2.19; C_w    -1.51; C_x     0.15; C_y    -2.75; C_z    -2.69; C_{     0.56; C_|     1.03; C_}    -1.58; C_~    -2.35; 
@    MULPOP    dipole moment & components:     38.1413;       -8.7411     37.1261      0.0000
 -----------------------------------------------------------------------------
  31  Screening settings (-IFTHRS, JTDIIS, DIFDEN, times)  -10   31    T  3.34D+01  3.36D+01
@ 31    -129026.604967        2.14912D+01    1.10D+01    8
      Virial theorem: -V/T =     91.905027
@    MULPOP   C_a    -1.03; C_b    -0.44; C_c    -0.11; C_d     0.05; C_e    -3.59; C_f    -0.54; C_g    -3.94; C_h     0.34; C_i     3.01; C_j    -1.59; 
@             C_k    -0.47; C_l    -0.71; C_m     0.28; C_n     1.05; C_o     0.65; C_p    -3.36; C_q     2.49; C_r     2.78; C_s    -1.49; C_t    -2.27; 
@             C_u    -2.13; C_v    -1.13; C_w     0.91; C_x     0.46; C_y     1.84; C_z     2.41; C_{    -1.55; C_|    -1.99; C_}     0.30; C_~     2.25; 
@    MULPOP    dipole moment & components:     74.5587;        6.1433     74.3052      0.0000
 -----------------------------------------------------------------------------
  32  Screening settings (-IFTHRS, JTDIIS, DIFDEN, times)  -10   32    T  3.34D+01  3.36D+01
@ 32    -129060.544688        1.83701D+01   -3.39D+01    8
      Virial theorem: -V/T =     94.558377
@    MULPOP   C_a     0.25; C_b    -1.66; C_c    -4.11; C_d    -0.42; C_e    -5.94; C_f     6.07; C_g    -9.27; C_h    10.57; C_i    -9.67; C_j     3.68; 
@             C_k    -2.60; C_l    -0.41; C_m     0.83; C_n     0.34; C_o     0.53; C_p    -3.22; C_q    -1.15; C_r     3.06; C_s    -2.34; C_t    -1.41; 
@             C_u    -1.47; C_v    -1.44; C_w     0.86; C_x    -4.16; C_y     2.29; C_z     0.72; C_{    -0.85; C_|    -3.43; C_}    -0.06; C_~     2.42; 
@    MULPOP    dipole moment & components:    530.1964;      -42.5753   -528.4842      0.0000
 -----------------------------------------------------------------------------
  33  Screening settings (-IFTHRS, JTDIIS, DIFDEN, times)  -10   33    T  3.35D+01  3.37D+01
@ 33    -129071.102295        1.40049D+01   -1.06D+01    8
      Virial theorem: -V/T =     94.332724
@    MULPOP   C_a    -1.13; C_b    -0.61; C_c    -0.20; C_d    -0.17; C_e    -0.51; C_f    -0.95; C_g    -2.40; C_h     0.08; C_i    -0.95; C_j    -0.52; 
@             C_k    -0.67; C_l     0.04; C_m    -0.66; C_n     2.02; C_o     0.26; C_p    -3.58; C_q    -0.45; C_r     0.27; C_s    -2.96; C_t    -1.24; 
@             C_u    -1.41; C_v     0.14; C_w     0.78; C_x     0.14; C_y    -0.87; C_z    -0.22; C_{    -0.55; C_|    -1.97; C_}    -2.47; C_~    -0.66; 
@    MULPOP    dipole moment & components:     82.3555;      -18.2862    -80.2997      0.0000
 -----------------------------------------------------------------------------
  34  Screening settings (-IFTHRS, JTDIIS, DIFDEN, times)  -10   34    T  3.27D+01  3.29D+01
@ 34    -129042.002034        1.88127D+01    2.91D+01    8
      Virial theorem: -V/T =     92.369330
@    MULPOP   C_a    -3.51; C_b    -4.86; C_c     0.53; C_d    -1.81; C_e    -2.11; C_f     0.63; C_g    -1.87; C_h    -0.15; C_i     0.23; C_j    -1.57; 
@             C_k     2.36; C_l     2.87; C_m     3.24; C_n     3.02; C_o     0.49; C_p    -3.34; C_q     0.32; C_r     1.02; C_s    -2.87; C_t    -1.21; 
@             C_u     0.00; C_v    -0.82; C_w    -1.31; C_x     2.23; C_y     2.40; C_z     0.32; C_{     0.39; C_|    -1.61; C_}    -2.71; C_~     2.14; 
@    MULPOP    dipole moment & components:    396.3994;        5.4944    396.3614      0.0000
 -----------------------------------------------------------------------------
  35  Screening settings (-IFTHRS, JTDIIS, DIFDEN, times)  -10   35    T  3.26D+01  3.27D+01
@ 35    -129082.861461        6.10578D+00   -4.09D+01    8
      Virial theorem: -V/T =     93.835214
@    MULPOP   C_a    -3.89; C_b    -7.21; C_c     1.85; C_d    -1.59; C_e    -2.67; C_f     0.87; C_g    -3.89; C_h     1.60; C_i    -0.85; C_j    -0.82; 
@             C_k     0.40; C_l    -0.79; C_m     0.18; C_n     1.30; C_o     0.85; C_p    -3.58; C_q     2.18; C_r     0.17; C_s    -2.42; C_t    -1.69; 
@             C_u    -0.44; C_v    -1.15; C_w    -1.78; C_x     4.88; C_y     0.70; C_z     0.71; C_{    -0.56; C_|    -0.87; C_}    -2.70; C_~     2.17; 
@    MULPOP    dipole moment & components:    192.3328;      -12.5841   -191.9207      0.0000
 -----------------------------------------------------------------------------
  36  Screening settings (-IFTHRS, JTDIIS, DIFDEN, times)  -10   36    T  3.25D+01  3.26D+01
@ 36    -129084.304227        4.21708D+00   -1.44D+00    8
      Virial theorem: -V/T =     93.926154
@    MULPOP   C_a    -3.67; C_b    -6.01; C_c     1.47; C_d    -1.33; C_e    -3.24; C_f     1.86; C_g    -5.34; C_h     2.78; C_i    -1.99; C_j     1.09; 
@             C_k    -0.89; C_l     1.56; C_m    -1.11; C_n    -0.11; C_o     3.76; C_p    -4.20; C_q     0.44; C_r     0.65; C_s    -2.58; C_t    -1.89; 
@             C_u    -0.80; C_v    -1.62; C_w    -1.15; C_x     3.09; C_y     1.02; C_z     0.10; C_{    -0.31; C_|    -1.91; C_}    -2.25; C_~     1.50; 
@    MULPOP    dipole moment & components:    142.6112;      -18.0889   -141.4593      0.0000
 -----------------------------------------------------------------------------
  37  Screening settings (-IFTHRS, JTDIIS, DIFDEN, times)  -10   37    T  3.25D+01  3.26D+01
@ 37    -129085.273461        1.88313D+00   -9.69D-01    8
      Virial theorem: -V/T =     93.918657
@    MULPOP   C_a    -3.33; C_b    -5.82; C_c     1.32; C_d    -1.39; C_e    -3.36; C_f     1.78; C_g    -4.69; C_h     2.00; C_i    -1.43; C_j     0.63; 
@             C_k    -1.22; C_l     0.41; C_m     0.99; C_n     0.21; C_o     2.18; C_p    -3.64; C_q     0.45; C_r     1.00; C_s    -2.78; C_t    -1.21; 
@             C_u    -0.62; C_v    -1.18; C_w    -1.77; C_x     3.71; C_y     0.76; C_z    -0.64; C_{    -0.05; C_|    -1.82; C_}    -2.20; C_~     0.49; 
@    MULPOP    dipole moment & components:    110.9312;      -16.2015   -109.7417      0.0000
 -----------------------------------------------------------------------------
  38  Screening settings (-IFTHRS, JTDIIS, DIFDEN, times)  -10   38    T  3.20D+01  3.21D+01
@ 38    -129085.437606        1.09947D+00   -1.64D-01    8
      Virial theorem: -V/T =     93.907475
@    MULPOP   C_a    -4.39; C_b    -6.01; C_c     1.33; C_d    -1.34; C_e    -3.56; C_f     2.01; C_g    -4.69; C_h     1.89; C_i    -1.28; C_j     0.61; 
@             C_k    -1.20; C_l    -0.49; C_m     1.36; C_n     0.66; C_o     1.88; C_p    -3.57; C_q     0.20; C_r     0.88; C_s    -2.62; C_t    -1.45; 
@             C_u    -0.72; C_v    -1.35; C_w    -1.78; C_x     5.11; C_y     0.78; C_z    -0.50; C_{    -0.05; C_|    -1.42; C_}    -2.28; C_~     0.49; 
@    MULPOP    dipole moment & components:    115.0115;      -17.7531   -113.6331      0.0000
 -----------------------------------------------------------------------------
  39  Screening settings (-IFTHRS, JTDIIS, DIFDEN, times)  -10   39    T  3.18D+01  3.20D+01
@ 39    -129085.507100        6.52787D-01   -6.95D-02    8
      Virial theorem: -V/T =     93.892289
@    MULPOP   C_a    -4.82; C_b    -6.80; C_c     1.72; C_d    -1.64; C_e    -3.14; C_f     1.40; C_g    -3.98; C_h     1.48; C_i    -0.97; C_j     0.02; 
@             C_k    -0.63; C_l    -0.74; C_m     1.26; C_n     1.16; C_o     1.47; C_p    -3.49; C_q     0.08; C_r     0.94; C_s    -2.59; C_t    -1.52; 
@             C_u    -0.76; C_v    -1.28; C_w    -2.37; C_x     6.66; C_y     0.87; C_z    -0.40; C_{    -0.13; C_|    -1.34; C_}    -2.36; C_~     0.51; 
@    MULPOP    dipole moment & components:    116.4265;      -16.9426   -115.1872      0.0000
[...]
1084 O_b :3d2-  -0.0725   0.0259   0.0624   0.0000  -0.0294  -0.0057
1086 O_b :3d0   -0.0309  -0.0002  -0.0111  -0.0000   0.0072   0.0005
1087 O_b :3d1+  -0.0000  -0.0000   0.0000   0.0364  -0.0000   0.0000
1088 O_b :3d2+   0.0329  -0.0100  -0.0116   0.0000   0.0180   0.0197
1090 H_a :1s    -0.0336   0.0416  -0.1879  -0.0000   0.0571  -0.0065
1091 H_a :1s     0.2910  -0.0634  -0.2678  -0.0000   0.1954   0.0987
1092 H_a :1s     0.3259   0.0712   0.3111  -0.0000  -0.0879  -0.0924
1096 H_a :2px   -0.0128  -0.0064   0.0521   0.0000  -0.0057   0.0092
1097 H_a :2py    0.0692  -0.0049   0.0191   0.0000   0.0010   0.0071
1099 H_a :2px   -0.0236   0.0463   0.0234  -0.0000   0.0588   0.0314
1100 H_a :2py    0.0572  -0.0064  -0.0111  -0.0000   0.0312  -0.0192
1101 H_a :2pz    0.0000   0.0000   0.0000   0.0609   0.0000  -0.0000
1102 H_b :1s     0.0044  -0.0025  -0.0108   0.0000   0.0032  -0.0009
1103 H_b :1s    -0.1087   0.0025  -0.1627   0.0000   0.1238  -0.0237
1104 H_b :1s     0.3905  -0.2563  -0.5264   0.0000  -0.0950  -0.0636
1105 H_b :1s    -1.1382   0.4876   0.9568   0.0000   0.1542   0.2829
1109 H_b :2px   -0.0387   0.0118  -0.0123   0.0000   0.0356   0.0015
1110 H_b :2py   -0.1032   0.0188   0.0648   0.0000   0.0085   0.0332
1112 H_b :2px   -0.1767   0.0679   0.1046  -0.0000   0.0377   0.0325
1113 H_b :2py   -0.0336   0.0554   0.0839  -0.0000   0.0654   0.0150
1116 H_c :1s     0.1103   0.0119   0.2013   0.0000  -0.1974  -0.0715
1117 H_c :1s     1.0489  -0.7015  -0.9850   0.0000  -0.6351  -0.2670
1118 H_c :1s     0.6069  -0.1163   0.1031   0.0000  -0.1867   0.0596
1122 H_c :2px   -0.0167   0.0014  -0.0530  -0.0000   0.0517   0.0099
1123 H_c :2py    0.0352  -0.0358  -0.0823   0.0000  -0.0044  -0.0035
1125 H_c :2px   -0.3166   0.1682   0.4089   0.0000  -0.0304   0.0372
1126 H_c :2py   -0.1758   0.0525   0.0786   0.0000   0.0224   0.0442
1127 H_c :2pz    0.0000   0.0000  -0.0000  -0.0654  -0.0000   0.0000
1128 H_d :1s    -0.0237   0.0029   0.0113  -0.0000  -0.0007   0.0019
1129 H_d :1s    -0.7817   0.1929   0.3291  -0.0000   0.1548   0.0990
1130 H_d :1s     0.2925  -0.2528  -0.1331   0.0000  -0.2342  -0.0237
1131 H_d :1s     0.1136   0.0009   0.0808   0.0000  -0.0393   0.0981
1135 H_d :2px   -0.1359   0.0262   0.0447  -0.0000   0.0251   0.0175
1136 H_d :2py   -0.0111   0.0210   0.0085   0.0000   0.0342   0.0116
1138 H_d :2px    0.5749  -0.2071  -0.2395   0.0000  -0.1828  -0.1003
1139 H_d :2py   -0.0299  -0.0328  -0.0372   0.0000  -0.0396   0.0044
1140 H_d :2pz   -0.0000  -0.0000   0.0000   0.0131  -0.0000   0.0000
1141 H_e :1s    -0.0111   0.0009   0.0023  -0.0000   0.0038   0.0016
1142 H_e :1s    -0.1171   0.0423  -0.1372  -0.0000   0.2567   0.0538
1143 H_e :1s    -0.8137   0.4068   0.5644  -0.0000   0.5057   0.1250
1144 H_e :1s    -0.5908   0.0259  -0.2647   0.0000   0.2024   0.0672
1148 H_e :2px    0.0200  -0.0098   0.0336   0.0000  -0.0558  -0.0129
1149 H_e :2py   -0.0786  -0.0003   0.0006   0.0000   0.0176   0.0082
1151 H_e :2px    0.3270  -0.1197  -0.3809  -0.0000   0.0895  -0.0295
1152 H_e :2py   -0.0561  -0.0090   0.0330   0.0000  -0.0458   0.0081
1153 H_e :2pz   -0.0000  -0.0000   0.0000   0.0603   0.0000  -0.0000
1154 H_f :1s     0.0209   0.0048   0.0066   0.0000  -0.0009  -0.0021
1155 H_f :1s     0.5386   0.0146   0.1512   0.0000  -0.1150  -0.0817
1156 H_f :1s    -0.9712   0.5591   0.7812  -0.0000   0.5321   0.0832
1157 H_f :1s     1.0834  -0.4356  -0.8777  -0.0000  -0.1697  -0.2908
1161 H_f :2px    0.0980  -0.0028   0.0205   0.0000  -0.0249  -0.0167
1162 H_f :2py   -0.0090  -0.0094  -0.0027  -0.0000   0.0149   0.0105
1164 H_f :2px   -0.6794   0.2341   0.3130  -0.0000   0.2370   0.1195
1165 H_f :2py   -0.0656   0.0344   0.0063  -0.0000   0.0663   0.0258
1166 H_f :2pz   -0.0000   0.0000  -0.0000  -0.0260   0.0000  -0.0000
1167 H_g :1s     0.0036   0.0097   0.0153   0.0000   0.0020   0.0030
1168 H_g :1s    -0.0841   0.1475   0.4407   0.0000  -0.1196   0.0986
1169 H_g :1s    -1.4226   0.6454   1.2082   0.0000   0.0393   0.0561
1170 H_g :1s    -0.2426   0.0366  -0.1746  -0.0000   0.0981  -0.0767
1174 H_g :2px    0.0387  -0.0226  -0.0586  -0.0000   0.0089  -0.0185
1175 H_g :2py    0.0147   0.0358   0.0199   0.0000   0.0509   0.0040
1177 H_g :2px    0.3308  -0.1667  -0.1553   0.0000  -0.2210  -0.0440
1178 H_g :2py    0.1063   0.0002  -0.1207  -0.0000   0.0696  -0.0173
1179 H_g :2pz    0.0000   0.0000  -0.0000  -0.0516  -0.0000   0.0000
1181 H_h :1s    -0.0352  -0.0151   0.1389   0.0000  -0.0948   0.0444
1182 H_h :1s    -0.4688   0.1680   0.7502   0.0000  -0.3800  -0.0309
1183 H_h :1s     0.2492  -0.0937  -0.1303  -0.0000  -0.0993  -0.1094
1187 H_h :2px    0.0178  -0.0147  -0.0089  -0.0000  -0.0165  -0.0016
1188 H_h :2py    0.0721   0.0064   0.0043  -0.0000  -0.0346  -0.0029
1190 H_h :2px    0.1659  -0.0440  -0.0130   0.0000  -0.0942  -0.0326
1191 H_h :2py    0.2532  -0.1131  -0.2072   0.0000  -0.1210  -0.1058
1192 H_h :2pz    0.0000  -0.0000   0.0000   0.0275  -0.0000  -0.0000
1193 H_i :1s    -0.0145   0.0045   0.0136   0.0000   0.0015   0.0040
1194 H_i :1s    -0.3606   0.1830   0.4510  -0.0000   0.0184   0.1128
1195 H_i :1s     0.8243  -0.0231   0.6300   0.0000  -0.3702   0.1260
1196 H_i :1s     0.9830  -0.1798   0.0484   0.0000  -0.3138  -0.0686
1200 H_i :2px    0.0579  -0.0332  -0.0912   0.0000   0.0022  -0.0178
1201 H_i :2py    0.0446  -0.0237  -0.0201  -0.0000   0.0183  -0.0064
1203 H_i :2px   -0.3320   0.1186   0.0061  -0.0000   0.2503   0.0426
1204 H_i :2py    0.1274  -0.0813  -0.0653  -0.0000  -0.1667  -0.0948
1205 H_i :2pz   -0.0000  -0.0000   0.0000   0.0388  -0.0000  -0.0000
1207 H_j :1s    -0.1759  -0.0562  -0.2602   0.0000   0.2258   0.1166
1208 H_j :1s     1.4475  -0.1383   0.1952   0.0000  -0.0209   0.3646
1209 H_j :1s    -0.9397   0.3211   0.5565   0.0000   0.2171   0.2444
1213 H_j :2px   -0.0301  -0.0109  -0.0536   0.0000   0.0495   0.0243
1214 H_j :2py    0.0544   0.0381   0.0551  -0.0000  -0.0169   0.0246
1216 H_j :2px    0.3778  -0.0662  -0.0370   0.0000  -0.0998  -0.0329
1217 H_j :2py   -0.1453   0.0980   0.2313  -0.0000   0.0233   0.0507
1218 H_j :2pz   -0.0000  -0.0000  -0.0000  -0.0180   0.0000   0.0000
1219 H_k :1s     0.0149  -0.0087  -0.0152   0.0000  -0.0020  -0.0042
1220 H_k :1s     0.5100  -0.1851  -0.3722   0.0000  -0.0745  -0.0984
1221 H_k :1s     1.2778  -0.2097  -0.5380   0.0000   0.0974   0.1410
1222 H_k :1s    -0.2746   0.0661   0.1508   0.0000   0.0944   0.0540
1226 H_k :2px   -0.1000   0.0263   0.0571  -0.0000   0.0075   0.0132
1227 H_k :2py    0.0628  -0.0357  -0.0390  -0.0000   0.0466   0.0168
1229 H_k :2px   -0.0163  -0.0890  -0.0719   0.0000  -0.1465  -0.0580
1230 H_k :2py    0.0402   0.0790   0.1270  -0.0000   0.1210   0.0928
1231 H_k :2pz   -0.0000   0.0000  -0.0000  -0.0189   0.0000   0.0000
1233 H_l :1s     0.1141  -0.1010  -0.0156   0.0000  -0.2722  -0.0906
1234 H_l :1s     0.1979  -0.3506  -1.0262   0.0000  -0.1176  -0.3153
1235 H_l :1s    -0.5657   0.1775   0.1750   0.0000   0.2240   0.0820
1239 H_l :2px   -0.0128  -0.0064   0.0278   0.0000  -0.0499  -0.0113
1240 H_l :2py    0.1647   0.0106   0.0211   0.0000   0.0026   0.0498
1242 H_l :2px   -0.3396   0.0690   0.0816  -0.0000   0.0920   0.0574
1243 H_l :2py    0.1360  -0.0168  -0.0026   0.0000   0.0372   0.0903
1244 H_l :2pz   -0.0000   0.0000  -0.0000   0.0140   0.0000  -0.0000
1245 H_m :1s     0.0025  -0.0054  -0.0123   0.0000  -0.0009  -0.0041
1246 H_m :1s     0.2229  -0.1558  -0.3924  -0.0000  -0.0065  -0.0955
1247 H_m :1s    -0.4455  -0.6367  -1.8504  -0.0000  -0.1075  -0.4964
1248 H_m :1s    -1.3655   0.3245   0.2771  -0.0000   0.3232   0.1087
1252 H_m :2px   -0.0483   0.0272   0.0663   0.0000  -0.0032   0.0138
1253 H_m :2py    0.0880  -0.0345  -0.0161   0.0000   0.0164   0.0194
1255 H_m :2px   -0.0801   0.1546   0.3817  -0.0000   0.0430   0.0832
1256 H_m :2py    0.2904  -0.2062  -0.2954   0.0000  -0.1956  -0.0432
1259 H_n :1s     0.0580  -0.0525  -0.1974  -0.0000   0.0875   0.0336
1260 H_n :1s     1.2082  -0.6543  -1.3043  -0.0000   0.0385  -0.2055
1261 H_n :1s     1.3996  -0.4478  -0.4253   0.0000  -0.5988  -0.1721
1265 H_n :2px    0.0003  -0.0029  -0.0232  -0.0000   0.0191   0.0098
1266 H_n :2py    0.1651  -0.0223  -0.0508   0.0000   0.0088   0.0613
1268 H_n :2px    0.0735  -0.0752  -0.2813   0.0000   0.0451  -0.0281
1269 H_n :2py    1.1365  -0.3613  -0.5271  -0.0000  -0.2493  -0.1802
1270 H_n :2pz   -0.0000   0.0000   0.0000  -0.0110  -0.0000   0.0000
1272 H_o :1s    -0.1092  -0.0954  -0.1511   0.0000   0.0256   0.0962
1273 H_o :1s    -1.2237   0.2680   0.4982   0.0000   0.3480   0.2977
1274 H_o :1s     1.6616  -0.4183  -0.4563  -0.0000  -0.3796  -0.1402
1278 H_o :2px    0.0069   0.0176   0.0149  -0.0000   0.0017  -0.0232
1279 H_o :2py    0.0877  -0.0270  -0.0354  -0.0000   0.0102  -0.0102
1281 H_o :2px    0.0994  -0.0014  -0.0762  -0.0000   0.0131  -0.0262
1282 H_o :2py   -0.3264  -0.0405  -0.1935  -0.0000  -0.0206  -0.0082
1284 H_p :1s    -0.0033   0.0013  -0.0027  -0.0000   0.0026  -0.0363
1285 H_p :1s    -0.2569   0.0833   0.0258  -0.0000   0.0438  -0.2469
1286 H_p :1s    -1.7446   0.5262   0.9184   0.0000   0.1327   0.0849
1287 H_p :1s    -0.9189   0.3079   0.2207  -0.0000   0.4330   0.0491
1291 H_p :2px   -0.0553   0.0243   0.0231  -0.0000  -0.0014  -0.0648
1292 H_p :2py    0.0281  -0.0126  -0.0308   0.0000   0.0098   0.0213
1294 H_p :2px   -0.1021   0.0106   0.0731   0.0000  -0.0377  -0.0052
1295 H_p :2py    0.6551  -0.1874  -0.0652  -0.0000  -0.1287  -0.0660
1298 H_q :1s    -0.0531   0.0429   0.0539  -0.0000  -0.0514  -0.0457
1299 H_q :1s     1.9844  -0.6626  -1.1375  -0.0000  -0.8030  -0.6189
1300 H_q :1s     0.1187   0.0500   0.1412  -0.0000  -0.0656  -0.1719
1304 H_q :2px   -0.0106   0.0001   0.0119   0.0000   0.0136   0.0093
1305 H_q :2py   -0.1174   0.0356  -0.0405   0.0000  -0.0017   0.0044
1307 H_q :2px   -0.3753   0.1058   0.1856  -0.0000   0.1356   0.0684
1308 H_q :2py    0.0163   0.0361  -0.0249  -0.0000   0.0625   0.0204
1309 H_q :2pz   -0.0000   0.0000   0.0000   0.0296   0.0000  -0.0000
1311 H_r :1s    -0.1480   0.0780   0.1910  -0.0000  -0.0413  -0.0608
1312 H_r :1s    -0.0991   0.1902   0.6892  -0.0000  -0.4616  -0.1379
1313 H_r :1s    -0.7924   0.2553   0.5275   0.0000   0.0336   0.1408
1317 H_r :2px   -0.0041  -0.0031   0.0125   0.0000  -0.0108  -0.0125
1318 H_r :2py   -0.0734  -0.0226   0.0590   0.0000   0.0292  -0.0015
1320 H_r :2px    0.2874  -0.0491   0.0378   0.0000  -0.1033  -0.0265
1321 H_r :2py   -0.0710  -0.0055  -0.1205   0.0000  -0.0237  -0.0343
1322 H_r :2pz   -0.0000  -0.0000   0.0000   0.0643   0.0000  -0.0000
1323 H_s :1s    -0.0169   0.0101   0.0139  -0.0000  -0.0018   0.0009
1324 H_s :1s    -0.3782   0.2101   0.3851   0.0000  -0.0062   0.0271
1325 H_s :1s    -2.2911   1.0984   2.0299   0.0000   0.3978   0.4527
1326 H_s :1s     1.3304  -0.3950  -0.3471  -0.0000  -0.3874  -0.0693
1330 H_s :2px    0.0684  -0.0337  -0.0605  -0.0000  -0.0011  -0.0128
1331 H_s :2py   -0.0750   0.0304  -0.0077   0.0000  -0.0515  -0.0034
1333 H_s :2px    0.2857  -0.1690  -0.3329   0.0000  -0.0365  -0.0863
1334 H_s :2py    0.0966  -0.0627  -0.0585   0.0000  -0.1541  -0.1019
1335 H_s :2pz   -0.0000  -0.0000  -0.0000  -0.0395  -0.0000   0.0000
1337 H_t :1s     0.0728   0.0426   0.0052  -0.0000   0.0342  -0.0728
1338 H_t :1s    -2.3965   1.1756   1.7089  -0.0000   1.0182   0.4853
1339 H_t :1s     0.5533  -0.1120   0.1012   0.0000  -0.1646   0.0881
1343 H_t :2px    0.0140   0.0036  -0.0246  -0.0000   0.0180  -0.0123
1344 H_t :2py   -0.0635   0.0025   0.0936   0.0000   0.0489   0.0076
1346 H_t :2px   -0.7165   0.2592   0.2887  -0.0000   0.1988   0.0903
1347 H_t :2py   -0.2786   0.0896   0.2236  -0.0000  -0.0230   0.0015
1348 H_t :2pz    0.0000   0.0000  -0.0000  -0.0589  -0.0000   0.0000
1349 H_u :1s     0.0138   0.0003  -0.0012  -0.0000  -0.0086   0.0001
1350 H_u :1s     0.5076  -0.0455  -0.0721  -0.0000  -0.1147  -0.0202
1351 H_u :1s    -1.5064   0.6992   0.7297  -0.0000   0.6205   0.2695
1352 H_u :1s    -0.1377  -0.0958  -0.2628   0.0000   0.0714   0.1381
1356 H_u :2px   -0.1260   0.0286   0.0421   0.0000   0.0279   0.0106
1357 H_u :2py   -0.0223   0.0135   0.0144   0.0000  -0.0430   0.0057
1359 H_u :2px    0.5626  -0.1701  -0.1885   0.0000  -0.1682  -0.0071
1360 H_u :2py   -0.1303   0.0885   0.1096  -0.0000   0.1315   0.0814
1361 H_u :2pz    0.0000   0.0000   0.0000   0.0532   0.0000  -0.0000
1363 H_v :1s    -0.1775   0.0857   0.1368  -0.0000   0.0350   0.0549
1364 H_v :1s     0.0453  -0.1560  -0.3948  -0.0000  -0.1220  -0.1948
1365 H_v :1s     1.0274  -0.4155  -0.8026  -0.0000  -0.1152  -0.2109
1369 H_v :2px   -0.0060   0.0058   0.0015  -0.0000  -0.0151  -0.0032
1370 H_v :2py    0.0542   0.0044  -0.0248   0.0000   0.0256  -0.0095
1372 H_v :2px    0.0183   0.0069   0.0538  -0.0000  -0.0253  -0.0381
1373 H_v :2py    0.0327   0.0335   0.0197  -0.0000   0.0804   0.0610
1374 H_v :2pz   -0.0000   0.0000   0.0000   0.0507   0.0000  -0.0000
1376 H_w :1s    -0.4852   0.0774   0.1251   0.0000   0.1824   0.1065
1377 H_w :1s    -0.1274  -0.0774   0.1191   0.0000  -0.2865  -0.1595
1378 H_w :1s    -0.8852   0.2161   0.0382  -0.0000   0.2781  -0.0078
1379 H_w :2px   -0.0113   0.0033   0.0049  -0.0000   0.0042   0.0041
1382 H_w :2px    0.0914  -0.0170  -0.0172  -0.0000  -0.0348  -0.0101
1383 H_w :2py    0.0851  -0.0479  -0.0027   0.0000  -0.0244  -0.0068
1385 H_w :2px   -0.1483  -0.0020  -0.0315   0.0000   0.0335  -0.0262
1386 H_w :2py    0.2469  -0.0998  -0.1015   0.0000  -0.1286  -0.0280
1387 H_w :2pz   -0.0000  -0.0000  -0.0000  -0.0593  -0.0000   0.0000
1388 H_x :1s    -0.0144   0.0079   0.0150   0.0000   0.0051   0.0055
1389 H_x :1s    -0.1716   0.0620   0.3510   0.0000   0.0080   0.1388
1390 H_x :1s    -0.4585   0.1541   0.5880   0.0000   0.0546   0.1335
1391 H_x :1s    -0.4036   0.0802  -0.0724  -0.0000   0.1277  -0.0866
1395 H_x :2px   -0.0022  -0.0011   0.0677   0.0000  -0.0159   0.0176
1396 H_x :2py    0.0314  -0.0140   0.0027   0.0000  -0.0182   0.0136
1398 H_x :2px    0.0495  -0.0519  -0.0582   0.0000  -0.0240   0.0105
1399 H_x :2py    0.0488  -0.0602  -0.0620   0.0000  -0.1084  -0.0382
1400 H_x :2pz    0.0000  -0.0000  -0.0000  -0.0290  -0.0000   0.0000
1401 H_y :1s     0.0110  -0.0093  -0.0181   0.0000   0.0029   0.0021
1402 H_y :1s     0.3328  -0.2738  -0.4890   0.0000   0.1095   0.0547
1403 H_y :1s     1.5767  -0.6062  -0.4740  -0.0000  -0.4094   0.0089
1404 H_y :1s     1.2789  -0.5659  -0.8158   0.0000  -0.5034  -0.1253
1408 H_y :2px   -0.0617   0.0448   0.0779  -0.0000  -0.0192  -0.0044
1409 H_y :2py   -0.1325   0.0367   0.0361  -0.0000   0.0536   0.0435
1411 H_y :2px   -0.5544   0.1431   0.1752  -0.0000   0.0811   0.0537
1412 H_y :2py   -0.1235   0.1154   0.2288  -0.0000   0.1485   0.0676
1414 H_z :1s     0.0147  -0.0050  -0.0142  -0.0000  -0.0012  -0.0000
1415 H_z :1s     0.4727  -0.1954  -0.3640   0.0000  -0.0724  -0.0042
1416 H_z :1s     0.5560  -0.1712  -0.0542   0.0000  -0.1272   0.1653
1417 H_z :1s     1.0248  -0.2190  -0.2940  -0.0000  -0.1884  -0.1159
1421 H_z :2px    0.0551  -0.0178  -0.0329   0.0000  -0.0175   0.0003
1422 H_z :2py   -0.0842   0.0032   0.0241   0.0000   0.0624   0.0427
1424 H_z :2px   -0.1114   0.0621   0.1311   0.0000   0.0491   0.0723
1425 H_z :2py   -0.4015   0.1144   0.0631   0.0000   0.1450   0.0936
1426 H_z :2pz   -0.0000  -0.0000   0.0000   0.0271  -0.0000   0.0000
1428 H_{ :1s    -0.1534  -0.0499  -0.0068   0.0000   0.0332   0.0645
1429 H_{ :1s    -0.8271   0.1368  -0.2400   0.0000   0.4446   0.1881
1430 H_{ :1s    -1.9431   0.6483   0.8255   0.0000   0.6248   0.2706
1434 H_{ :2px    0.0667  -0.0077  -0.0355  -0.0000  -0.0077  -0.0151
1435 H_{ :2py   -0.1523   0.0473   0.0235   0.0000   0.0373   0.0423
1437 H_{ :2px    0.3390  -0.0696  -0.0636   0.0000  -0.1056  -0.0411
1438 H_{ :2py   -0.1310   0.0817   0.3002   0.0000  -0.0637   0.0948
1439 H_{ :2pz    0.0000  -0.0000  -0.0000  -0.0151  -0.0000   0.0000
1441 H_| :1s     0.2402  -0.0801  -0.2376  -0.0000   0.0856  -0.0180
1442 H_| :1s     2.1117  -0.6913  -1.7413  -0.0000  -0.1693  -0.5321
1443 H_| :1s    -0.4350   0.0381  -0.2518   0.0000   0.1865  -0.0685
1447 H_| :2px    0.0601  -0.0182  -0.0552  -0.0000   0.0191  -0.0043
1448 H_| :2py   -0.0866  -0.0225   0.0086   0.0000   0.0400   0.0150
1450 H_| :2px    0.2247  -0.0788  -0.2602  -0.0000  -0.0087  -0.0796
1451 H_| :2py   -0.1283   0.0415   0.1134   0.0000   0.0083   0.0602
1452 H_| :2pz    0.0000   0.0000  -0.0000  -0.0514   0.0000   0.0000
1454 H_} :1s    -0.2699   0.0700   0.1052  -0.0000   0.1062   0.0175
1455 H_} :1s    -0.8073   0.2279   0.1489   0.0000   0.4201   0.2420
1456 H_} :1s    -0.0590   0.1131   0.1487  -0.0000   0.1135  -0.0252
1460 H_} :2px    0.0727  -0.0186  -0.0208   0.0000  -0.0290  -0.0025
1461 H_} :2py   -0.0177   0.0124   0.0165  -0.0000   0.0113   0.0062
1462 H_} :2pz   -0.0000  -0.0000  -0.0000   0.0108   0.0000  -0.0000
1463 H_} :2px    0.2979  -0.0401   0.0144  -0.0000  -0.0621  -0.0442
1464 H_} :2py    0.1318   0.0894   0.1791   0.0000   0.0751   0.0172
1467 H_~ :1s    -0.0623   0.0100   0.0597  -0.0000  -0.0098   0.1017
1468 H_~ :1s     2.2882  -0.6844  -1.0343  -0.0000  -0.2529  -0.0792
1469 H_~ :1s    -0.8560   0.2470   0.4725   0.0000   0.1309   0.1098
1473 H_~ :2px   -0.0372   0.0206   0.0455  -0.0000  -0.0077   0.0170
1474 H_~ :2py   -0.0858   0.0244   0.0562   0.0000   0.0186   0.0042
1476 H_~ :2px    0.4245  -0.1389  -0.1884  -0.0000  -0.0986  -0.0611
1477 H_~ :2py   -1.0152   0.3283   0.4404   0.0000   0.2532   0.1492
1478 H_~ :2pz   -0.0000   0.0000   0.0000  -0.0202   0.0000  -0.0000
1479 H_ :1s    -0.0029  -0.0069  -0.0053   0.0000   0.0061   0.2699
1480 H_ :1s     0.0986  -0.0565  -0.1234   0.0000   0.0193  -0.0084
1481 H_ :1s    -0.0400   0.0151  -0.0103   0.0000   0.0682   0.1873
1482 H_ :1s    -0.7870   0.2836   0.3107  -0.0000   0.2588   0.0722
1483 H_ :2px   -0.0004   0.0009   0.0009   0.0000   0.0000  -0.0245
1486 H_ :2px   -0.0226   0.0138   0.0318   0.0000  -0.0105  -0.0483
1487 H_ :2py   -0.0247   0.0072   0.0119  -0.0000   0.0023  -0.0200
1489 H_ :2px    0.2059  -0.0190   0.0684  -0.0000  -0.0665  -0.0452
1490 H_ :2py   -0.4146   0.0521  -0.0779  -0.0000   0.1239   0.0350
1492 H_:1s    -0.0050  -0.0071  -0.0061   0.0000   0.0061   0.1615
1493 H_:1s     0.0139   0.0398   0.0546   0.0000  -0.0114   0.0216
1494 H_:1s     0.6962  -0.2402   0.0145   0.0000  -0.5356  -0.1197
1495 H_:1s     0.5461  -0.2242  -0.1894   0.0000  -0.2594  -0.0202
1496 H_:2px   -0.0004  -0.0005  -0.0007  -0.0000   0.0004   0.0115
1499 H_:2px   -0.0106   0.0125   0.0177  -0.0000  -0.0019  -0.0017
1500 H_:2py    0.0175  -0.0199  -0.0401  -0.0000   0.0032  -0.0633
1502 H_:2px    0.2374  -0.0451   0.0710  -0.0000  -0.1044  -0.0498
1503 H_:2py   -0.0632   0.0503  -0.0132  -0.0000   0.1383   0.0092

  Total CPU  time used in SIRIUS :   4 hours 27 minutes 38 seconds
  Total wall time used in SIRIUS :   4 hours 32 minutes 24 seconds

 
     Date and time (Linux)  : Fri May 30 06:46:58 2025
     Host name              : xm009                                   

 NOTE:    3 warnings have been issued.
 Check output, result, and error files for "WARNING".


                     .---------------------------------------.
                     | End of Wave Function Section (SIRIUS) |
                     `---------------------------------------'


@ - DALTON aborted because wave function not converged!

  --- SEVERE ERROR, PROGRAM WILL BE ABORTED ---
     Date and time (Linux)  : Fri May 30 06:46:58 2025
     Host name              : xm009                                   

@ MPI MASTER, node no.:     0
@ Reason: DALTON aborted because wave function not converged

  Total CPU  time used in DALTON:   4 hours 27 minutes 56 seconds
  Total wall time used in DALTON:   4 hours 32 minutes 51 seconds


 QTRACE dump of internal trace stack

 ========================
      level    module
 ========================
          3    SIRIUS      
          2    DALTON      
          1    DALTON main 
 ========================

