

     ************************************************************************
     *************** Dalton - An Electronic Structure Program ***************
     ************************************************************************

    This is output from DALTON release Dalton2020.0 (2020)
         ( Web site: http://daltonprogram.org )

   ----------------------------------------------------------------------------

    NOTE:
     
    Dalton is an experimental code for the evaluation of molecular
    properties using (MC)SCF, DFT, CI, and CC wave functions.
    The authors accept no responsibility for the performance of
    the code or for the correctness of the results.
     
    The code (in whole or part) is provided under a licence and
    is not to be reproduced for further distribution without
    the written permission of the authors or their representatives.
     
    See the home page "http://daltonprogram.org" for further information.
     
    If results obtained with this code are published,
    the appropriate citations would be both of:
     
       K. Aidas, C. Angeli, K. L. Bak, V. Bakken, R. Bast,
       L. Boman, O. Christiansen, R. Cimiraglia, S. Coriani,
       P. Dahle, E. K. Dalskov, U. Ekstroem,
       T. Enevoldsen, J. J. Eriksen, P. Ettenhuber, B. Fernandez,
       L. Ferrighi, H. Fliegl, L. Frediani, K. Hald, A. Halkier,
       C. Haettig, H. Heiberg, T. Helgaker, A. C. Hennum,
       H. Hettema, E. Hjertenaes, S. Hoest, I.-M. Hoeyvik,
       M. F. Iozzi, B. Jansik, H. J. Aa. Jensen, D. Jonsson,
       P. Joergensen, J. Kauczor, S. Kirpekar,
       T. Kjaergaard, W. Klopper, S. Knecht, R. Kobayashi, H. Koch,
       J. Kongsted, A. Krapp, K. Kristensen, A. Ligabue,
       O. B. Lutnaes, J. I. Melo, K. V. Mikkelsen, R. H. Myhre,
       C. Neiss, C. B. Nielsen, P. Norman, J. Olsen,
       J. M. H. Olsen, A. Osted, M. J. Packer, F. Pawlowski,
       T. B. Pedersen, P. F. Provasi, S. Reine, Z. Rinkevicius,
       T. A. Ruden, K. Ruud, V. Rybkin, P. Salek, C. C. M. Samson,
       A. Sanchez de Meras, T. Saue, S. P. A. Sauer,
       B. Schimmelpfennig, K. Sneskov, A. H. Steindal,
       K. O. Sylvester-Hvid, P. R. Taylor, A. M. Teale,
       E. I. Tellgren, D. P. Tew, A. J. Thorvaldsen, L. Thoegersen,
       O. Vahtras, M. A. Watson, D. J. D. Wilson, M. Ziolkowski
       and H. Agren,
       "The Dalton quantum chemistry program system",
       WIREs Comput. Mol. Sci. 2014, 4:269–284 (doi: 10.1002/wcms.1172)
     
    and
     
       Dalton, a molecular electronic structure program,
       Release Dalton2020.0 (2020), see http://daltonprogram.org
   ----------------------------------------------------------------------------

    Authors in alphabetical order (Major contribution(s) in parenthesis):

  Kestutis Aidas,           Vilnius University,           Lithuania   (QM/MM)
  Celestino Angeli,         University of Ferrara,        Italy       (NEVPT2)
  Keld L. Bak,              UNI-C,                        Denmark     (AOSOPPA, non-adiabatic coupling, magnetic properties)
  Vebjoern Bakken,          University of Oslo,           Norway      (DALTON; geometry optimizer, symmetry detection)
  Radovan Bast,             UiT The Arctic U. of Norway,  Norway      (DALTON installation and execution frameworks)
  Pablo Baudin,             University of Valencia,       Spain       (Cholesky excitation energies)
  Linus Boman,              NTNU,                         Norway      (Cholesky decomposition and subsystems)
  Bruno N. Cabral Tenorio,  Technical Univ. of Denmark,   Denmark     (Lanczos-based CC methods)
  Ove Christiansen,         Aarhus University,            Denmark     (CC module)
  Renzo Cimiraglia,         University of Ferrara,        Italy       (NEVPT2)
  Sonia Coriani,            Technical Univ. of Denmark,   Denmark     (CC and RESPONS modules)
  Janusz Cukras,            University of Warsaw,         Poland      (MChD in RESPONS)
  Paal Dahle,               University of Oslo,           Norway      (Parallelization)
  Erik K. Dalskov,          UNI-C,                        Denmark     (SOPPA)
  Thomas Enevoldsen,        Univ. of Southern Denmark,    Denmark     (SOPPA)
  Janus J. Eriksen,         Aarhus University,            Denmark     (Polarizable embedding, TDA)
  Rasmus Faber,             Technical Univ. of Denmark,   Denmark     (Vib.avg. NMR w. SOPPA, parallel AO-SOPPA, CVS-CC and EOMCC)
  Tobias Fahleson,          KTH Stockholm,                Sweden      (Damped cubic response)
  Berta Fernandez,          U. of Santiago de Compostela, Spain       (Doublet spin, ESR in RESPONS)
  Lara Ferrighi,            Aarhus University,            Denmark     (PCM Cubic response)
  Heike Fliegl,             University of Oslo,           Norway      (CCSD(R12))
  Luca Frediani,            UiT The Arctic U. of Norway,  Norway      (PCM)
  Emmanuel Fromager,        Univ. Strasbourg,             France      (MC-srDFT)
  Bin Gao,                  UiT The Arctic U. of Norway,  Norway      (Gen1Int library)
  Andre S. P. Gomes,        CNRS/Universite de Lille,     France      (Frozen density embedding)
  Christof Haettig,         Ruhr-University Bochum,       Germany     (CC module)
  Kasper Hald,              Aarhus University,            Denmark     (CC module)
  Asger Halkier,            Aarhus University,            Denmark     (CC module)
  Frederik Beyer Hansen,    University of Copenhagen,     Denmark     (Parallel AO-SOPPA)
  Erik D. Hedegaard,        Univ. of Southern Denmark,    Denmark     (Polarizable embedding, QM/MM, and MC-srDFT)
  Hanne Heiberg,            University of Oslo,           Norway      (Geometry analysis, selected one-electron integrals)
  Trygve Helgaker,          University of Oslo,           Norway      (DALTON; ABACUS, ERI, DFT modules, London, and much more)
  Alf Christian Hennum,     University of Oslo,           Norway      (Parity violation)
  Hinne Hettema,            University of Auckland,       New Zealand (Quadratic response in RESPONS; SIRIUS supersymmetry)
  Eirik Hjertenaes,         NTNU,                         Norway      (Cholesky decomposition)
  Pi A. B. Haase,           University of Copenhagen,     Denmark     (Triplet AO-SOPPA)
  Maria Francesca Iozzi,    University of Oslo,           Norway      (RPA)
  Christoph Jacob           TU Braunschweig               Germany     (Frozen density embedding)
  Brano Jansik              Technical Univ. of Ostrava    Czech Rep.  (DFT cubic response)
  Hans Joergen Aa. Jensen,  Univ. of Southern Denmark,    Denmark     (DALTON; SIRIUS, RESPONS, ABACUS, MC-srDFT, and much more)
  Dan Jonsson,              UiT The Arctic U. of Norway,  Norway      (Cubic response in RESPONS module)
  Poul Joergensen,          Aarhus University,            Denmark     (RESPONS, ABACUS, and CC modules)
  Maciej Kaminski,          University of Warsaw,         Poland      (CPPh in RESPONS)
  Joanna Kauczor,           Linkoeping University,        Sweden      (Complex polarization propagator (CPP) module)
  Sheela Kirpekar,          Univ. of Southern Denmark,    Denmark     (Mass-velocity & Darwin integrals)
  Erik Kjellgren,           Univ. of Southern Denmark,    Denmark     (MC-srDFT)
  Wim Klopper,              KIT Karlsruhe,                Germany     (R12 code in CC, SIRIUS, and ABACUS modules)
  Stefan Knecht,            ETH Zurich,                   Switzerland (Parallel CI and MCSCF, MC-srDFT)
  Rika Kobayashi,           Australian National Univ.,    Australia   (DIIS in CC, London in MCSCF)
  Henrik Koch,              NTNU,                         Norway      (CC module, Cholesky decomposition)
  Jacob Kongsted,           Univ. of Southern Denmark,    Denmark     (Polarizable embedding, polarizable density embedding, QM/MM)
  Andrea Ligabue,           University of Modena,         Italy       (CTOCD, AOSOPPA)
  Nanna H. List             Univ. of Southern Denmark,    Denmark     (Polarizable embedding)
  Ola B. Lutnaes,           University of Oslo,           Norway      (DFT Hessian)
  Juan I. Melo,             University of Buenos Aires,   Argentina   (LRESC, Relativistic Effects on NMR Shieldings)
  Kurt V. Mikkelsen,        University of Copenhagen,     Denmark     (MC-SCRF and QM/MM)
  Rolf H. Myhre,            NTNU,                         Norway      (Subsystems and CC3)
  Christian Neiss,          Univ. Erlangen-Nuernberg,     Germany     (CCSD(R12))
  Christian B. Nielsen,     University of Copenhagen,     Denmark     (QM/MM)
  Patrick Norman,           KTH Stockholm,                Sweden      (Cubic response and complex frequency response in RESPONS)
  Jeppe Olsen,              Aarhus University,            Denmark     (SIRIUS CI/density modules)
  Jogvan Magnus H. Olsen,   Aarhus University,            Denmark     (Polarizable embedding and polarizable density embedding)
  Anders Osted,             Copenhagen University,        Denmark     (QM/MM)
  Martin J. Packer,         University of Sheffield,      UK          (SOPPA)
  Filip Pawlowski,          Kazimierz Wielki University,  Poland      (CC3)
  Morten N. Pedersen,       Univ. of Southern Denmark,    Denmark     (Polarizable embedding)
  Thomas B. Pedersen,       University of Oslo,           Norway      (Cholesky decomposition)
  Patricio F. Provasi,      University of Northeastern,   Argentina   (Analysis of coupling constants in localized orbitals)
  Peter Reinholdt,          Univ. of Southern Denmark,    Denmark     (Polarizable embedding and polarizable density embedding)
  Zilvinas Rinkevicius,     KTH Stockholm,                Sweden      (open-shell DFT, ESR)
  Elias Rudberg,            KTH Stockholm,                Sweden      (DFT grid and basis info)
  Torgeir A. Ruden,         University of Oslo,           Norway      (Numerical derivatives in ABACUS)
  Kenneth Ruud,             UiT The Arctic U. of Norway,  Norway      (DALTON; ABACUS magnetic properties and much more)
  Pawel Salek,              KTH Stockholm,                Sweden      (DALTON; DFT code)
  Claire C. M. Samson       University of Karlsruhe       Germany     (Boys localization, r12 integrals in ERI)
  Alfredo Sanchez de Meras, University of Valencia,       Spain       (CC module, Cholesky decomposition)
  Trond Saue,               Paul Sabatier University,     France      (direct Fock matrix construction)
  Stephan P. A. Sauer,      University of Copenhagen,     Denmark     (SOPPA(CCSD), SOPPA prop., AOSOPPA, vibrational g-factors)
  Bernd Schimmelpfennig,    Forschungszentrum Karlsruhe,  Germany     (AMFI module)
  Anna K. Schnack-Petersen, University of Copenhagen,     Denmark     (RPA(D) and HRPA(D) properties in AOSOPPA)
  Kristian Sneskov,         Aarhus University,            Denmark     (Polarizable embedding, QM/MM)
  Arnfinn H. Steindal,      UiT The Arctic U. of Norway,  Norway      (parallel QM/MM, polarizable embedding)
  Casper Steinmann,         Aalborg University,           Denmark     (QFIT, polarizable embedding)
  K. O. Sylvester-Hvid,     University of Copenhagen,     Denmark     (MC-SCRF)
  Peter R. Taylor,          VLSCI/Univ. of Melbourne,     Australia   (Symmetry handling ABACUS, integral transformation)
  Andrew M. Teale,          University of Nottingham,     England     (DFT-AC, DFT-D)
  David P. Tew,             University of Bristol,        England     (CCSD(R12))
  Julien Toulouse,          Sorbonne Univ.,               France      (MC-srDFT)
  Olav Vahtras,             KTH Stockholm,                Sweden      (Triplet response, spin-orbit, ESR, TDDFT, open-shell DFT)
  Lucas Visscher,           Vrije Universiteit Amsterdam, Netherlands (Frozen density embedding)
  David J. Wilson,          La Trobe University,          Australia   (DFT Hessian and DFT magnetizabilities)
  Hans Agren,               KTH Stockholm,                Sweden      (SIRIUS module, RESPONS, MC-SCRF solvation)
 --------------------------------------------------------------------------------

     Date and time (Linux)  : Tue May 27 14:20:18 2025
     Host name              : xm059                                   

 * Work memory size             :   131072000 = 1000.00 megabytes.

 * Directories for basis set searches:
   1) /gpfs/projects/rjh/adrian/summer2025/beta_projects/raw_data/NLO/dalton/hf/n16/dipole
   2) /gpfs/projects/rjh/adrian/dalton/build/basis


Compilation information
-----------------------

 Who compiled             | ahurtado
 Host                     | milan2
 System                   | Linux-5.14.0-427.42.1.el9_4.x86_64
 CMake generator          | Unix Makefiles
 Processor                | x86_64
 64-bit integers          | OFF
 MPI                      | ON
 Fortran compiler         | /gpfs/software/openmpi/milan/gcc13.2/4.1.6/bin/mpi
                          | f90
 Fortran compiler version | GNU Fortran (GCC) 13.2.0
 C compiler               | /gpfs/software/openmpi/milan/gcc13.2/4.1.6/bin/mpi
                          | cc
 C compiler version       | gcc (GCC) 13.2.0
 C++ compiler             | /gpfs/software/openmpi/milan/gcc13.2/4.1.6/bin/mpi
                          | cxx
 C++ compiler version     | unknown
 BLAS                     | /gpfs/software/intel/oneAPI/2024_2/mkl/2024.2/lib/
                          | intel64/libmkl_gf_lp64.so;/gpfs/software/intel/one
                          | API/2024_2/mkl/2024.2/lib/intel64/libmkl_sequentia
                          | l.so;/gpfs/software/intel/oneAPI/2024_2/mkl/2024.2
                          | /lib/intel64/libmkl_core.so;/usr/lib64/libpthread.
                          | a;/usr/lib64/libm.so
 LAPACK                   | /gpfs/software/intel/oneAPI/2024_2/mkl/2024.2/lib/
                          | intel64/libmkl_lapack95_lp64.a;/gpfs/software/inte
                          | l/oneAPI/2024_2/mkl/2024.2/lib/intel64/libmkl_gf_l
                          | p64.so
 Static linking           | OFF
 Last Git revision        | 66052b3af5ea7225e31178bf9a8b031913c72190
 Git branch               | (HEAD detached at Dalton2020.0)
 Configuration time       | 2025-04-10 16:02:31.569498

 * MPI parallel run using 576 processes.


   Content of the .dal input file
 ----------------------------------

**DALTON INPUT
.RUN RESPONSE
.DIRECT
**WAVE FUNCTIONS
.HF
**PROPERTIES
**RESPONSE
*QUADRA
.DIPLEN
.FREQUENCIES
2
0.0 0.0149
**END OF DALTON INPUT


   Content of the .mol file
 ----------------------------

BASIS
aug-cc-pVDZ
blah
blah
Atomtype=4 Angstrom Charge=0 Nosymmetry
Charge=6 Atoms=32
C_a 0.5001809983290585 1.7797879992716736 0.0
C_b -0.16220999745438547 2.987646000095475 0.0
C_c 0.49582800246940334 4.2645759993647525 0.0
C_d -0.16915799897858463 5.470992997726178 0.0
C_e 0.48522700069982333 6.749906998777245 0.0
C_f -0.18341200099354546 7.954179998627237 0.0
C_g 0.46579499967845656 9.236000997642712 0.0
C_h -0.20809300072767378 10.43704700077723 0.0
C_i 0.43356600142335505 11.723210999494853 0.0
C_j -0.24802199836574126 12.9192910025971 0.0
C_k 0.38215300104666733 14.212150998067658 0.0
C_l -0.31143800261395815 15.400095002099524 0.0
C_m 0.29939099765736177 16.704016997358508 0.0
C_n -0.41625300058199055 17.876390999153745 0.0
C_o 0.1561239991475072 19.199333999369884 0.0
C_p -0.6175079998522471 20.329543002265773 0.0
C_q 0.4749929992011593 -8.156224001118602 0.0
C_r -0.179651000971239 -6.945319998060691 0.0
C_s 0.4879030022282326 -5.672542997416067 0.0
C_t -0.16915799897858463 -4.462354997583053 0.0
C_u 0.49582800246940334 -3.1886870001017367 0.0
C_v -0.16298399850157194 -1.9791220005988446 0.0
C_w 0.49990900124277404 -0.7046010012045602 0.0
C_x -0.16054399942557732 0.5042449999304224 0.0
C_y 0.41873600059812416 -13.123278000928199 0.0
C_z -0.22421999902094053 -11.909230997453463 0.0
C_{ 0.4541339977464114 -10.639791999027798 0.0
C_| -0.19645800256376092 -9.427784000014126 0.0
C_} 0.23745900210343157 -18.066174997569448 0.0
C_~ -0.3694410002565105 -16.85711999789511 0.0
C_ 0.35629500006879467 -15.605667997448725 0.0
C_ -0.2729060010614268 -14.388457001097214 0.0
Charge=7 Atoms=2
N_a -0.16239899838694838 21.620682002320013 0.0
N_b -0.5410550006299404 -19.300058002407035 0.0
Charge=8 Atoms=2
O_a 0.11924999975613079 -20.345945998225037 0.0
O_b -1.7717919993241475 -19.22771300057939 0.0
Charge=1 Atoms=34
H_a 1.6001719980811484 1.7843189997614541 0.0
H_b -1.2623579987931093 2.9820030024905093 0.0
H_c 1.5958120012069963 4.27142500241638 0.0
H_d -1.2693339990835248 5.462585001569512 0.0
H_e 1.5851840008161278 6.759962000792628 0.0
H_f -1.2836180001545587 7.94185400086163 0.0
H_g 1.5656890012478308 9.250623000073519 0.0
H_h -1.3083209977853345 10.419023997580537 0.0
H_i 1.5333279997375278 11.744488998173237 0.0
H_j -1.3482389991209645 12.892666001586539 0.0
H_k 1.4816050020590574 14.243579001946058 0.0
H_l -1.4115270006936922 15.359170997844007 0.0
H_m 1.397944000673633 16.753083001553975 0.0
H_n -1.515291999948541 17.80723799955263 0.0
H_o 1.2505279988270643 19.295309002073548 0.0
H_p -1.7105979995999896 20.234098002289226 0.0
H_q 0.8283599982620515 21.82069100093003 0.0
H_r -0.8038760006199114 22.39826699741765 0.0
H_s 1.574827997511544 -8.159852997885706 0.0
H_t -1.279722001734038 -6.943320999396752 0.0
H_u 1.5878200018391826 -5.67336700041789 0.0
H_v -1.2692440019153064 -4.46256900213882 0.0
H_w 1.5957889978736484 -3.1876010014629115 0.0
H_x -1.2630859984653722 -1.9810369976723614 0.0
H_y 1.599892999980367 -0.7018710024335741 0.0
H_z -1.260666002287941 0.5006460022193905 0.0
H_{ 1.5180350006035932 -13.14106400152755 0.0
H_| -1.3242000024705929 -11.897244001192556 0.0
H_} 1.5538019983126525 -10.648318001702442 0.0
H_~ -1.2965080002830687 -9.422253997618956 0.0
H_ 1.3141369992957848 -18.246511002564585 0.0
H_ -1.4659360013498532 -16.83678699858777 0.0
H_ 1.4542269977530282 -15.640808999684648 0.0
H_ -1.372507002501025 -14.365893001253232 0.0


       *******************************************************************
       *********** Output from DALTON general input processing ***********
       *******************************************************************

 --------------------------------------------------------------------------------
   Overall default print level:    0
   Print level for DALTON.STAT:    1

    Parallel calculation using MPI
    AO-direct calculation (in sections where implemented)
    HERMIT 1- and 2-electron integral sections will be executed
    "Old" integral transformation used (limited to max 255 basis functions)
    Wave function sections will be executed (SIRIUS module)
    Dynamic molecular response properties section will be executed (RESPONSE module)
 --------------------------------------------------------------------------------


   ****************************************************************************
   *************** Output of molecule and basis set information ***************
   ****************************************************************************


    The two title cards from your ".mol" input:
    ------------------------------------------------------------------------
 1: blah                                                                    
 2: blah                                                                    
    ------------------------------------------------------------------------

  Coordinates are entered in Angstrom and converted to atomic units.
          - Conversion factor : 1 bohr = 0.52917721 A

  Atomic type no.    1
  --------------------
  Nuclear charge:   6.00000
  Number of symmetry independent centers:   32
  Number of basis sets to read;    2
  Basis set file used for this atomic type with Z =   6 :
     "/gpfs/projects/rjh/adrian/dalton/build/basis/aug-cc-pVDZ"

  Atomic type no.    2
  --------------------
  Nuclear charge:   7.00000
  Number of symmetry independent centers:    2
  Number of basis sets to read;    2
  Basis set file used for this atomic type with Z =   7 :
     "/gpfs/projects/rjh/adrian/dalton/build/basis/aug-cc-pVDZ"

  Atomic type no.    3
  --------------------
  Nuclear charge:   8.00000
  Number of symmetry independent centers:    2
  Number of basis sets to read;    2
  Basis set file used for this atomic type with Z =   8 :
     "/gpfs/projects/rjh/adrian/dalton/build/basis/aug-cc-pVDZ"

  Atomic type no.    4
  --------------------
  Nuclear charge:   1.00000
  Number of symmetry independent centers:   34
  Number of basis sets to read;    2
  Basis set file used for this atomic type with Z =   1 :
     "/gpfs/projects/rjh/adrian/dalton/build/basis/aug-cc-pVDZ"


                         SYMGRP: Point group information
                         -------------------------------

@    Point group: C1 


                                 Isotopic Masses
                                 ---------------

                           C_a        12.000000
                           C_b        12.000000
                           C_c        12.000000
                           C_d        12.000000
                           C_e        12.000000
                           C_f        12.000000
                           C_g        12.000000
                           C_h        12.000000
                           C_i        12.000000
                           C_j        12.000000
                           C_k        12.000000
                           C_l        12.000000
                           C_m        12.000000
                           C_n        12.000000
                           C_o        12.000000
                           C_p        12.000000
                           C_q        12.000000
                           C_r        12.000000
                           C_s        12.000000
                           C_t        12.000000
                           C_u        12.000000
                           C_v        12.000000
                           C_w        12.000000
                           C_x        12.000000
                           C_y        12.000000
                           C_z        12.000000
                           C_{        12.000000
                           C_|        12.000000
                           C_}        12.000000
                           C_~        12.000000
                           C_        12.000000
                           C_       12.000000
                           N_a        14.003074
                           N_b        14.003074
                           O_a        15.994915
                           O_b        15.994915
                           H_a         1.007825
                           H_b         1.007825
                           H_c         1.007825
                           H_d         1.007825
                           H_e         1.007825
                           H_f         1.007825
                           H_g         1.007825
                           H_h         1.007825
                           H_i         1.007825
                           H_j         1.007825
                           H_k         1.007825
                           H_l         1.007825
                           H_m         1.007825
                           H_n         1.007825
                           H_o         1.007825
                           H_p         1.007825
                           H_q         1.007825
                           H_r         1.007825
                           H_s         1.007825
                           H_t         1.007825
                           H_u         1.007825
                           H_v         1.007825
                           H_w         1.007825
                           H_x         1.007825
                           H_y         1.007825
                           H_z         1.007825
                           H_{         1.007825
                           H_|         1.007825
                           H_}         1.007825
                           H_~         1.007825
                           H_         1.007825
                           H_        1.007825
                           H_        1.007825
                           H_        1.007825

                       Total mass:   478.262028 amu
                       Natural abundance:  68.986 %

 Center-of-mass coordinates (a.u.):   -0.010137   -0.315204    0.000000
 Center-of-mass coordinates (Angs):   -0.005364   -0.166799    0.000000


  Atoms and basis sets
  --------------------

  Number of atom types :    4
  Total number of atoms:   70

  Basis set used is "aug-cc-pVDZ" from the basis set library.

  label    atoms   charge   prim   cont     basis
  ----------------------------------------------------------------------
  C_         32    6.0000    35    23      [10s5p2d|4s3p2d]                                   
  N_          2    7.0000    35    23      [10s5p2d|4s3p2d]                                   
  O_          2    8.0000    35    23      [10s5p2d|4s3p2d]                                   
  H_         34    1.0000    11     9      [5s2p|3s2p]                                        
  ----------------------------------------------------------------------
  total:     70  256.0000  1634  1134
  ----------------------------------------------------------------------
  Spherical harmonic basis used.

  Threshold for neglecting AO integrals:  1.00D-12

  Max    interatomic separation is   42.7542 Angstrom (   80.7937 Bohr)
  between atoms   54 and   35, "H_r   " and "O_a   ".

  Min HX interatomic separation is    1.0080 Angstrom (    1.9049 Bohr)

  Min YX interatomic separation is    1.2329 Angstrom (    2.3298 Bohr)


  Bond distances (Angstrom):
  --------------------------

                  atom 1     atom 2       distance
                  ------     ------       --------
  bond distance:  C_b        C_a          1.377564
  bond distance:  C_c        C_b          1.436511
  bond distance:  C_d        C_c          1.377552
  bond distance:  C_e        C_d          1.436607
  bond distance:  C_f        C_e          1.377444
  bond distance:  C_g        C_f          1.436849
  bond distance:  C_h        C_g          1.377184
  bond distance:  C_i        C_h          1.437339
  bond distance:  C_j        C_i          1.376652
  bond distance:  C_k        C_j          1.438265
  bond distance:  C_l        C_k          1.375601
  bond distance:  C_m        C_l          1.439904
  bond distance:  C_n        C_m          1.373538
  bond distance:  C_o        C_n          1.441455
  bond distance:  C_p        C_o          1.369627
  bond distance:  C_r        C_q          1.376535
  bond distance:  C_s        C_r          1.437216
  bond distance:  C_t        C_s          1.377056
  bond distance:  C_u        C_t          1.436815
  bond distance:  C_v        C_u          1.377346
  bond distance:  C_w        C_v          1.436604
  bond distance:  C_x        C_a          1.436512
  bond distance:  C_x        C_w          1.377500
  bond distance:  C_z        C_y          1.373791
  bond distance:  C_{        C_z          1.439319
  bond distance:  C_|        C_q          1.437954
  bond distance:  C_|        C_{          1.375585
  bond distance:  C_~        C_}          1.352827
  bond distance:  C_        C_~          1.446660
  bond distance:  C_       C_y          1.441890
  bond distance:  C_       C_          1.370218
  bond distance:  N_a        C_p          1.369001
  bond distance:  N_b        C_}          1.458956
  bond distance:  O_a        N_b          1.236885
  bond distance:  O_b        N_b          1.232861
  bond distance:  H_a        C_a          1.100000
  bond distance:  H_b        C_b          1.100162
  bond distance:  H_c        C_c          1.100005
  bond distance:  H_d        C_d          1.100208
  bond distance:  H_e        C_e          1.100003
  bond distance:  H_f        C_f          1.100275
  bond distance:  H_g        C_g          1.099991
  bond distance:  H_h        C_h          1.100376
  bond distance:  H_i        C_i          1.099968
  bond distance:  H_j        C_j          1.100539
  bond distance:  H_k        C_k          1.099901
  bond distance:  H_l        C_l          1.100850
  bond distance:  H_m        C_m          1.099648
  bond distance:  H_n        C_n          1.101212
  bond distance:  H_o        C_o          1.098604
  bond distance:  H_p        C_p          1.097249
  bond distance:  H_q        N_a          1.010746
  bond distance:  H_r        N_a          1.008033
  bond distance:  H_s        C_q          1.099841
  bond distance:  H_t        C_r          1.100073
  bond distance:  H_u        C_s          1.099917
  bond distance:  H_v        C_t          1.100086
  bond distance:  H_w        C_u          1.099962
  bond distance:  H_x        C_v          1.100104
  bond distance:  H_y        C_w          1.099987
  bond distance:  H_z        C_x          1.100128
  bond distance:  H_{        C_y          1.099443
  bond distance:  H_|        C_z          1.100045
  bond distance:  H_}        C_{          1.099701
  bond distance:  H_~        C_|          1.100064
  bond distance:  H_        C_}          1.091676
  bond distance:  H_       C_~          1.096684
  bond distance:  H_       C_          1.098494
  bond distance:  H_       C_         1.099832


  Bond angles (degrees):
  ----------------------

                  atom 1     atom 2     atom 3         angle
                  ------     ------     ------         -----
  bond angle:     C_b        C_a        C_x          123.876
  bond angle:     C_b        C_a        H_a          118.504
  bond angle:     C_x        C_a        H_a          117.620
  bond angle:     C_a        C_b        C_c          123.996
  bond angle:     C_a        C_b        H_b          118.447
  bond angle:     C_c        C_b        H_b          117.557
  bond angle:     C_b        C_c        C_d          123.873
  bond angle:     C_b        C_c        H_c          117.620
  bond angle:     C_d        C_c        H_c          118.507
  bond angle:     C_c        C_d        C_e          124.039
  bond angle:     C_c        C_d        H_d          118.426
  bond angle:     C_e        C_d        H_d          117.535
  bond angle:     C_d        C_e        C_f          123.862
  bond angle:     C_d        C_e        H_e          117.621
  bond angle:     C_f        C_e        H_e          118.516
  bond angle:     C_e        C_f        C_g          124.099
  bond angle:     C_e        C_f        H_f          118.398
  bond angle:     C_g        C_f        H_f          117.503
  bond angle:     C_f        C_g        C_h          123.843
  bond angle:     C_f        C_g        H_g          117.623
  bond angle:     C_h        C_g        H_g          118.534
  bond angle:     C_g        C_h        C_i          124.190
  bond angle:     C_g        C_h        H_h          118.358
  bond angle:     C_i        C_h        H_h          117.453
  bond angle:     C_h        C_i        C_j          123.809
  bond angle:     C_h        C_i        H_i          117.623
  bond angle:     C_j        C_i        H_i          118.568
  bond angle:     C_i        C_j        C_k          124.337
  bond angle:     C_i        C_j        H_j          118.290
  bond angle:     C_k        C_j        H_j          117.372
  bond angle:     C_j        C_k        C_l          123.735
  bond angle:     C_j        C_k        H_k          117.623
  bond angle:     C_l        C_k        H_k          118.642
  bond angle:     C_k        C_l        C_m          124.620
  bond angle:     C_k        C_l        H_l          118.148
  bond angle:     C_m        C_l        H_l          117.231
  bond angle:     C_l        C_m        C_n          123.498
  bond angle:     C_l        C_m        H_m          117.658
  bond angle:     C_n        C_m        H_m          118.843
  bond angle:     C_m        C_n        C_o          125.203
  bond angle:     C_m        C_n        H_n          117.800
  bond angle:     C_o        C_n        H_n          116.996
  bond angle:     C_n        C_o        C_p          122.212
  bond angle:     C_n        C_o        H_o          118.408
  bond angle:     C_p        C_o        H_o          119.380
  bond angle:     C_o        C_p        N_a          126.191
  bond angle:     C_o        C_p        H_p          119.402
  bond angle:     N_a        C_p        H_p          114.407
  bond angle:     C_r        C_q        C_|          123.767
  bond angle:     C_r        C_q        H_s          118.586
  bond angle:     C_|        C_q        H_s          117.647
  bond angle:     C_q        C_r        C_s          123.927
  bond angle:     C_q        C_r        H_t          118.501
  bond angle:     C_s        C_r        H_t          117.572
  bond angle:     C_r        C_s        C_t          123.824
  bond angle:     C_r        C_s        H_u          117.633
  bond angle:     C_t        C_s        H_u          118.542
  bond angle:     C_s        C_t        C_u          123.931
  bond angle:     C_s        C_t        H_v          118.488
  bond angle:     C_u        C_t        H_v          117.580
  bond angle:     C_t        C_u        C_v          123.855
  bond angle:     C_t        C_u        H_w          117.626
  bond angle:     C_v        C_u        H_w          118.519
  bond angle:     C_u        C_v        C_w          123.945
  bond angle:     C_u        C_v        H_x          118.476
  bond angle:     C_w        C_v        H_x          117.579
  bond angle:     C_v        C_w        C_x          123.871
  bond angle:     C_v        C_w        H_y          117.622
  bond angle:     C_x        C_w        H_y          118.508
  bond angle:     C_a        C_x        C_w          123.966
  bond angle:     C_a        C_x        H_z          117.571
  bond angle:     C_w        C_x        H_z          118.463
  bond angle:     C_z        C_y        C_         123.430
  bond angle:     C_z        C_y        H_{          118.833
  bond angle:     C_       C_y        H_{          117.737
  bond angle:     C_y        C_z        C_{          123.976
  bond angle:     C_y        C_z        H_|          118.530
  bond angle:     C_{        C_z        H_|          117.494
  bond angle:     C_z        C_{        C_|          123.655
  bond angle:     C_z        C_{        H_}          117.675
  bond angle:     C_|        C_{        H_}          118.671
  bond angle:     C_q        C_|        C_{          123.937
  bond angle:     C_q        C_|        H_~          117.548
  bond angle:     C_{        C_|        H_~          118.514
  bond angle:     C_~        C_}        N_b          121.095
  bond angle:     C_~        C_}        H_          126.163
  bond angle:     N_b        C_}        H_          112.741
  bond angle:     C_}        C_~        C_          123.235
  bond angle:     C_}        C_~        H_         117.717
  bond angle:     C_        C_~        H_         119.048
  bond angle:     C_~        C_        C_         122.555
  bond angle:     C_~        C_        H_         118.277
  bond angle:     C_       C_        H_         119.169
  bond angle:     C_y        C_       C_          124.000
  bond angle:     C_y        C_       H_         117.489
  bond angle:     C_        C_       H_         118.511
  bond angle:     C_p        N_a        H_q          120.830
  bond angle:     C_p        N_a        H_r          121.062
  bond angle:     H_q        N_a        H_r          118.108
  bond angle:     C_}        N_b        O_a          115.485
  bond angle:     C_}        N_b        O_b          118.886
  bond angle:     O_a        N_b        O_b          125.630




 Principal moments of inertia (u*A**2) and principal axes
 --------------------------------------------------------

   IA     171.432298          0.004694    0.999989    0.000000
   IB   80509.102816          0.999989   -0.004694    0.000000
   IC   80680.535114          0.000000    0.000000    1.000000


 Rotational constants
 --------------------

@    The molecule is planar.

               A                   B                   C

           2947.9801              6.2773              6.2640 MHz
            0.098334            0.000209            0.000209 cm-1


@  Nuclear repulsion energy : 2402.763166227178 Hartree


                     .---------------------------------------.
                     | Starting in Integral Section (HERMIT) |
                     `---------------------------------------'



 ***************************************************************************************
 ****************** Output from **INTEGRALS input processing (HERMIT) ******************
 ***************************************************************************************


 - Using defaults, no **INTEGRALS input found

 Default print level:        1

 Calculation of one-electron Hamiltonian integrals.

 Center of mass  (bohr):     -0.010137254706     -0.315203559370      0.000000000000
 Operator center (bohr):      0.000000000000      0.000000000000      0.000000000000
 Gauge origin    (bohr):      0.000000000000      0.000000000000      0.000000000000
 Dipole origin   (bohr):      0.000000000000      0.000000000000      0.000000000000


     ************************************************************************
     ************************** Output from HERINT **************************
     ************************************************************************



                      Nuclear contribution to dipole moments
                      --------------------------------------

                 au               Debye          C m (/(10**-30)

      x      0.00000573         0.00001456         0.00004858
      y     -0.00003204        -0.00008144        -0.00027165
      z      0.00000000         0.00000000         0.00000000


  Time used in ONEDRV     is       3.26 seconds
  Time used in HUCKEL     is       0.73 seconds
  Time used in OVERLAP    is       0.34 seconds
  Time used in POPOVLP    is       0.65 seconds
  Time used in R2         is       0.40 seconds
  Time used in R4         is       0.46 seconds
  Time used in DIPLEN     is       0.44 seconds
  Time used in QUADRUP    is       0.82 seconds
  Time used in KINENE     is       0.57 seconds
  Time used in GABGEN     is       2.14 seconds
  Total CPU  time used in HERMIT:   9.78 seconds
  Total wall time used in HERMIT:   9.85 seconds


                        .----------------------------------.
                        | End of Integral Section (HERMIT) |
                        `----------------------------------'



                   .--------------------------------------------.
                   | Starting in Wave Function Section (SIRIUS) |
                   `--------------------------------------------'



@ Primary orbitals are deleted during canonical orthonormalization
@   because of detected numerical linear dependence or too large coefficients.
@ Eigenvalue threshold for num. lin. dep. =  1.00D-06

@   3 MO components are deleted in symmetry    1
 Overlap eigenvalues of the deleted orbitals:
  8.09D-07  3.13D-07  8.52D-08

 Max MO coeff. of last deleted MO & limit:  2.80D+02  1.00D+03

WARNING: Orbitals have been deleted because of numerical
   linear dependence although not requested in input.

 *** Output from Huckel module :

     Using EWMO model:          T
     Using EHT  model:          F
     Number of Huckel orbitals each symmetry:  214

 EWMO - Energy Weighted Maximum Overlap - is a Huckel type method,
        which normally is better than Extended Huckel Theory.
 Reference: Linderberg and Ohrn, Propagators in Quantum Chemistry (Wiley, 1973)

 Huckel EWMO eigenvalues for symmetry :  1
          -20.684753     -20.683498     -15.677080     -15.674960     -11.359424
          -11.359399     -11.359261     -11.359183     -11.359010     -11.358942
          -11.358790     -11.358587     -11.357954     -11.357130     -11.356157
          -11.355081     -11.353950     -11.352816     -11.351738     -11.350820
          -11.348685     -11.348084     -11.347426     -11.346827     -11.346322
          -11.345921     -11.345627     -11.345499     -11.345452     -11.345438
          -11.345358     -11.345333     -11.345247     -11.345243     -11.345177
          -11.345175      -1.964048      -1.793045      -1.791226      -1.787118
           -1.779025      -1.765339      -1.744534      -1.715463      -1.677581
           -1.631034      -1.576629      -1.515853      -1.455458      -1.437679
           -1.377057      -1.305768      -1.233778      -1.213401      -1.199536
           -1.176826      -1.162937      -1.145617      -1.112268      -1.090186
           -1.070489      -1.026119      -1.019550      -0.979364      -0.957800
           -0.931272      -0.901949      -0.882679      -0.853983      -0.852028
           -0.838778      -0.815452      -0.812535      -0.785729      -0.774884
           -0.757769      -0.746552      -0.742390      -0.735337      -0.708623
           -0.694397      -0.683578      -0.678668      -0.667160      -0.651888
           -0.646464      -0.636361      -0.620132      -0.612951      -0.602228
           -0.595175      -0.586070      -0.578106      -0.567260      -0.561696
           -0.544494      -0.544027      -0.536067      -0.529235      -0.516693
           -0.511219      -0.508962      -0.499183      -0.495389      -0.495025
           -0.492473      -0.491242      -0.486876      -0.486183      -0.481864
           -0.481128      -0.479171      -0.477178      -0.476892      -0.474213
           -0.473958      -0.470529      -0.448815      -0.445649      -0.421477
           -0.420523      -0.400134      -0.394580      -0.382597      -0.371179
           -0.369523      -0.361425      -0.350631      -0.336082      -0.309376
           -0.292443      -0.276750      -0.262668      -0.250214      -0.239331
           -0.229930      -0.229151      -0.221908      -0.215151      -0.209542
           -0.204963      -0.201302      -0.200874      -0.198457      -0.196340
           -0.194879      -0.194024      -0.190599      -0.166744      -0.142715
           -0.139033      -0.135856      -0.133867      -0.132308      -0.131663
           -0.131463      -0.130926      -0.130713      -0.129966      -0.129887
           -0.129818      -0.129482      -0.129337      -0.129163      -0.128652
           -0.128479      -0.127859      -0.127739      -0.127183      -0.127078
           -0.126644      -0.126453      -0.126131      -0.125635      -0.125578
           -0.125330      -0.124589      -0.124496      -0.124006      -0.123728
           -0.123590      -0.123197      -0.113035      -0.112625      -0.110390
           -0.109190      -0.107000      -0.105289      -0.103313      -0.101710
           -0.099733      -0.098104      -0.096210      -0.095214      -0.093231
           -0.092666      -0.090991      -0.090294      -0.089229      -0.088337
           -0.087731      -0.086867      -0.086464      -0.085709      -0.085501
           -0.084948      -0.084620      -0.083660      -0.082720      -0.081800
           -0.080927      -0.080166      -0.079601      -0.079329

 **********************************************************************
 *SIRIUS* a direct, restricted step, second order MCSCF program       *
 **********************************************************************

 
     Date and time (Linux)  : Tue May 27 14:21:54 2025
     Host name              : xm059                                   

 Title lines from ".mol" input file:
     blah                                                                    
     blah                                                                    

 Print level on unit LUPRI =   2 is   0
 Print level on unit LUW4  =   2 is   5

@    Restricted, closed shell Hartree-Fock calculation.

@    Time-dependent Hartree-Fock calculation (random phase approximation).
 Fock matrices are calculated directly and in parallel without use of integrals on disk.

 Initial molecular orbitals are obtained according to
 ".MOSTART EWMO  " input option

     Wave function specification
     ============================
@    Wave function type        --- HF ---
@    Number of closed shell electrons         256
@    Number of electrons in active shells       0
@    Total charge of the molecule               0

@    Spin multiplicity and 2 M_S                1         0
@    Total number of symmetries                 1 (point group: C1 )
@    Reference state symmetry                   1 (irrep name : A  )

     Orbital specifications
     ======================
@    Abelian symmetry species          All |    1
@                                          |  A  
                                       --- |  ---
@    Occupied SCF orbitals             128 |  128
@    Secondary orbitals               1003 | 1003
@    Total number of orbitals         1131 | 1131
@    Number of basis functions        1134 | 1134

     Optimization information
     ========================
@    Number of configurations                 1
@    Number of orbital rotations         128384
     ------------------------------------------
@    Total number of variables           128385

     Maximum number of Fock   iterations      0
     Maximum number of DIIS   iterations     60
     Maximum number of QC-SCF iterations     60
     Threshold for SCF convergence     1.00D-05

    INFORMATION: Switched to "new" integral transformation (from 1988 ;-) )
    because more than 255 basis functions.


 ***********************************************
 ***** DIIS acceleration of SCF iterations *****
 ***********************************************

 C1-DIIS algorithm; max error vectors =    8

 Iter      Total energy        Error norm    Delta(E)  DIIS dim.
 -----------------------------------------------------------------------------
   1  Screening settings (-IFTHRS, JTDIIS, DIFDEN, times)  -10    1    T  1.16D+01  1.17D+01
@  1    -1484.72497079        8.41628D+00   -1.48D+03    1
      Virial theorem: -V/T =      2.013622
@    MULPOP   C_a     0.24; C_b     0.29; C_c     0.24; C_d     0.30; C_e     0.24; C_f     0.29; C_g     0.23; C_h     0.28; C_i     0.21; C_j     0.30; 
@             C_k     0.19; C_l     0.36; C_m     0.18; C_n     0.30; C_o    -0.18; C_p     0.82; C_q     0.25; C_r     0.31; C_s     0.26; C_t     0.30; 
@             C_u     0.26; C_v     0.30; C_w     0.25; C_x     0.29; C_y     0.27; C_z     0.30; C_{     0.27; C_|     0.30; C_}     0.75; C_~     0.06; 
@    MULPOP    dipole moment & components:     41.4333;        1.9510     41.3873      0.0000
   1  Level shift: doubly occupied orbital energies shifted by -2.00D-01
 -----------------------------------------------------------------------------
   2  Screening settings (-IFTHRS, JTDIIS, DIFDEN, times)  -10    2    T  7.21D+00  7.21D+00
@  2    -1489.37786944        3.00101D+00   -4.65D+00    2
      Virial theorem: -V/T =      2.000710
@    MULPOP   C_a     0.61; C_b     0.59; C_c     0.63; C_d     0.57; C_e     0.65; C_f     0.59; C_g     0.63; C_h     0.58; C_i     0.65; C_j     0.58; 
@             C_k     0.67; C_l     0.57; C_m     0.81; C_n     0.37; C_o     0.71; C_p     0.68; C_q     0.64; C_r     0.56; C_s     0.64; C_t     0.58; 
@             C_u     0.62; C_v     0.58; C_w     0.62; C_x     0.60; C_y     0.68; C_z     0.55; C_{     0.64; C_|     0.58; C_}     0.74; C_~     0.51; 
@    MULPOP    dipole moment & components:     15.9524;        2.1632     15.8050      0.0000
   2  Level shift: doubly occupied orbital energies shifted by -1.00D-01
 -----------------------------------------------------------------------------
   3  Screening settings (-IFTHRS, JTDIIS, DIFDEN, times)  -10    3    T  6.94D+00  6.94D+00
@  3    -1489.91760135        1.10967D+00   -5.40D-01    3
      Virial theorem: -V/T =      2.001429
@    MULPOP   C_a     0.66; C_b     0.61; C_c     0.66; C_d     0.59; C_e     0.70; C_f     0.59; C_g     0.66; C_h     0.58; C_i     0.70; C_j     0.59; 
@             C_k     0.70; C_l     0.61; C_m     0.77; C_n     0.40; C_o     0.76; C_p     0.90; C_q     0.68; C_r     0.59; C_s     0.67; C_t     0.62; 
@             C_u     0.67; C_v     0.59; C_w     0.67; C_x     0.61; C_y     0.74; C_z     0.60; C_{     0.68; C_|     0.62; C_}     1.29; C_~     0.59; 
@    MULPOP    dipole moment & components:     13.4367;        2.7650     13.1491      0.0000
   3  Level shift: doubly occupied orbital energies shifted by -5.00D-02
 -----------------------------------------------------------------------------
   4  Screening settings (-IFTHRS, JTDIIS, DIFDEN, times)  -10    4    T  6.75D+00  6.75D+00
@  4    -1490.00541534        3.40498D-01   -8.78D-02    4
      Virial theorem: -V/T =      2.002705
@    MULPOP   C_a     0.67; C_b     0.60; C_c     0.67; C_d     0.58; C_e     0.70; C_f     0.57; C_g     0.68; C_h     0.56; C_i     0.71; C_j     0.57; 
@             C_k     0.72; C_l     0.59; C_m     0.81; C_n     0.36; C_o     0.77; C_p     0.92; C_q     0.69; C_r     0.58; C_s     0.67; C_t     0.62; 
@             C_u     0.67; C_v     0.58; C_w     0.68; C_x     0.59; C_y     0.76; C_z     0.61; C_{     0.68; C_|     0.62; C_}     1.22; C_~     0.57; 
@    MULPOP    dipole moment & components:     12.1234;        2.9899     11.7489      0.0000
   4  Level shift: doubly occupied orbital energies shifted by -2.50D-02
 -----------------------------------------------------------------------------
   5  Screening settings (-IFTHRS, JTDIIS, DIFDEN, times)  -10    5    T  6.66D+00  6.66D+00
@  5    -1490.02435168        1.44126D-01   -1.89D-02    5
      Virial theorem: -V/T =      2.002157
@    MULPOP   C_a     0.67; C_b     0.58; C_c     0.66; C_d     0.57; C_e     0.70; C_f     0.55; C_g     0.67; C_h     0.54; C_i     0.71; C_j     0.55; 
@             C_k     0.72; C_l     0.57; C_m     0.82; C_n     0.34; C_o     0.76; C_p     0.89; C_q     0.69; C_r     0.56; C_s     0.67; C_t     0.60; 
@             C_u     0.67; C_v     0.56; C_w     0.68; C_x     0.58; C_y     0.79; C_z     0.57; C_{     0.69; C_|     0.59; C_}     1.28; C_~     0.48; 
@    MULPOP    dipole moment & components:     11.0446;        3.2647     10.5510      0.0000
   5  Level shift: doubly occupied orbital energies shifted by -1.25D-02
 -----------------------------------------------------------------------------
   6  Screening settings (-IFTHRS, JTDIIS, DIFDEN, times)  -10    6    T  6.50D+00  6.51D+00
@  6    -1490.03004922        7.82527D-02   -5.70D-03    6
      Virial theorem: -V/T =      2.002035
@    MULPOP   C_a     0.66; C_b     0.57; C_c     0.66; C_d     0.56; C_e     0.70; C_f     0.54; C_g     0.67; C_h     0.54; C_i     0.71; C_j     0.55; 
@             C_k     0.72; C_l     0.57; C_m     0.82; C_n     0.34; C_o     0.76; C_p     0.89; C_q     0.70; C_r     0.54; C_s     0.67; C_t     0.58; 
@             C_u     0.67; C_v     0.55; C_w     0.68; C_x     0.57; C_y     0.80; C_z     0.54; C_{     0.70; C_|     0.57; C_}     1.29; C_~     0.46; 
@    MULPOP    dipole moment & components:     10.4623;        3.4614      9.8731      0.0000
   6  Level shift: doubly occupied orbital energies shifted by -1.25D-02
 -----------------------------------------------------------------------------
   7  Screening settings (-IFTHRS, JTDIIS, DIFDEN, times)  -14    7    F  8.61D+00  8.61D+00
@  7    -1490.03223278        3.67707D-02   -2.18D-03    7
      Virial theorem: -V/T =      2.002049
@    MULPOP   C_a     0.66; C_b     0.57; C_c     0.66; C_d     0.56; C_e     0.70; C_f     0.54; C_g     0.67; C_h     0.54; C_i     0.71; C_j     0.55; 
@             C_k     0.72; C_l     0.56; C_m     0.82; C_n     0.34; C_o     0.75; C_p     0.89; C_q     0.70; C_r     0.54; C_s     0.68; C_t     0.58; 
@             C_u     0.67; C_v     0.55; C_w     0.68; C_x     0.56; C_y     0.82; C_z     0.53; C_{     0.71; C_|     0.56; C_}     1.31; C_~     0.43; 
@    MULPOP    dipole moment & components:     10.0708;        3.5148      9.4376      0.0000
 -----------------------------------------------------------------------------
   8  Screening settings (-IFTHRS, JTDIIS, DIFDEN, times)  -14    8    T  8.06D+00  8.06D+00
@  8    -1490.03271098        1.64091D-02   -4.78D-04    8
      Virial theorem: -V/T =      2.002046
@    MULPOP   C_a     0.66; C_b     0.57; C_c     0.66; C_d     0.56; C_e     0.70; C_f     0.54; C_g     0.67; C_h     0.54; C_i     0.70; C_j     0.55; 
@             C_k     0.71; C_l     0.57; C_m     0.82; C_n     0.34; C_o     0.75; C_p     0.89; C_q     0.70; C_r     0.54; C_s     0.68; C_t     0.58; 
@             C_u     0.67; C_v     0.55; C_w     0.68; C_x     0.57; C_y     0.83; C_z     0.52; C_{     0.72; C_|     0.56; C_}     1.32; C_~     0.42; 
@    MULPOP    dipole moment & components:      9.7642;        3.5346      9.1020      0.0000
 -----------------------------------------------------------------------------
   9  Screening settings (-IFTHRS, JTDIIS, DIFDEN, times)  -14    9    T  7.81D+00  7.81D+00
@  9    -1490.03278283        6.71411D-03   -7.19D-05    8
      Virial theorem: -V/T =      2.002039
@    MULPOP   C_a     0.66; C_b     0.58; C_c     0.65; C_d     0.57; C_e     0.70; C_f     0.55; C_g     0.67; C_h     0.54; C_i     0.70; C_j     0.56; 
@             C_k     0.71; C_l     0.57; C_m     0.81; C_n     0.35; C_o     0.75; C_p     0.89; C_q     0.70; C_r     0.54; C_s     0.68; C_t     0.58; 
@             C_u     0.67; C_v     0.55; C_w     0.68; C_x     0.57; C_y     0.83; C_z     0.52; C_{     0.72; C_|     0.56; C_}     1.32; C_~     0.42; 
@    MULPOP    dipole moment & components:      9.6129;        3.4812      8.9604      0.0000
 -----------------------------------------------------------------------------
  10  Screening settings (-IFTHRS, JTDIIS, DIFDEN, times)  -14   10    T  7.84D+00  7.85D+00
@ 10    -1490.03280340        4.32867D-03   -2.06D-05    8
      Virial theorem: -V/T =      2.002038
@    MULPOP   C_a     0.66; C_b     0.58; C_c     0.65; C_d     0.57; C_e     0.69; C_f     0.55; C_g     0.66; C_h     0.55; C_i     0.70; C_j     0.56; 
@             C_k     0.71; C_l     0.58; C_m     0.81; C_n     0.35; C_o     0.75; C_p     0.89; C_q     0.70; C_r     0.54; C_s     0.67; C_t     0.59; 
@             C_u     0.67; C_v     0.56; C_w     0.68; C_x     0.57; C_y     0.83; C_z     0.53; C_{     0.72; C_|     0.56; C_}     1.32; C_~     0.42; 
@    MULPOP    dipole moment & components:      9.4983;        3.4307      8.8571      0.0000
 -----------------------------------------------------------------------------
  11  Screening settings (-IFTHRS, JTDIIS, DIFDEN, times)  -14   11    T  7.53D+00  7.53D+00
@ 11    -1490.03281389        2.73723D-03   -1.05D-05    8
      Virial theorem: -V/T =      2.002039
@    MULPOP   C_a     0.65; C_b     0.59; C_c     0.65; C_d     0.57; C_e     0.69; C_f     0.56; C_g     0.66; C_h     0.55; C_i     0.69; C_j     0.56; 
@             C_k     0.70; C_l     0.58; C_m     0.81; C_n     0.35; C_o     0.75; C_p     0.89; C_q     0.70; C_r     0.54; C_s     0.67; C_t     0.59; 
@             C_u     0.66; C_v     0.56; C_w     0.67; C_x     0.58; C_y     0.83; C_z     0.53; C_{     0.72; C_|     0.57; C_}     1.32; C_~     0.42; 
@    MULPOP    dipole moment & components:      9.3956;        3.3843      8.7649      0.0000
 -----------------------------------------------------------------------------
  12  Screening settings (-IFTHRS, JTDIIS, DIFDEN, times)  -14   12    T  7.62D+00  7.63D+00
@ 12    -1490.03281934        1.07583D-03   -5.45D-06    8
      Virial theorem: -V/T =      2.002038
@    MULPOP   C_a     0.65; C_b     0.59; C_c     0.64; C_d     0.58; C_e     0.69; C_f     0.56; C_g     0.66; C_h     0.55; C_i     0.69; C_j     0.57; 
@             C_k     0.70; C_l     0.58; C_m     0.80; C_n     0.35; C_o     0.74; C_p     0.89; C_q     0.70; C_r     0.55; C_s     0.67; C_t     0.59; 
@             C_u     0.66; C_v     0.56; C_w     0.67; C_x     0.58; C_y     0.82; C_z     0.53; C_{     0.71; C_|     0.57; C_}     1.32; C_~     0.42; 
@    MULPOP    dipole moment & components:      9.2907;        3.3361      8.6711      0.0000
 -----------------------------------------------------------------------------
  13  Screening settings (-IFTHRS, JTDIIS, DIFDEN, times)  -14   13    T  7.37D+00  7.37D+00
@ 13    -1490.03282005        4.87926D-04   -7.06D-07    8
      Virial theorem: -V/T =      2.002038
@    MULPOP   C_a     0.65; C_b     0.59; C_c     0.64; C_d     0.58; C_e     0.68; C_f     0.56; C_g     0.65; C_h     0.56; C_i     0.69; C_j     0.57; 
@             C_k     0.70; C_l     0.58; C_m     0.80; C_n     0.35; C_o     0.74; C_p     0.89; C_q     0.70; C_r     0.55; C_s     0.67; C_t     0.59; 
@             C_u     0.66; C_v     0.56; C_w     0.67; C_x     0.58; C_y     0.82; C_z     0.53; C_{     0.71; C_|     0.57; C_}     1.32; C_~     0.42; 
@    MULPOP    dipole moment & components:      9.2518;        3.3191      8.6359      0.0000
 -----------------------------------------------------------------------------
  14  Screening settings (-IFTHRS, JTDIIS, DIFDEN, times)  -14   14    T  7.21D+00  7.22D+00
@ 14    -1490.03282013        2.33828D-04   -7.71D-08    8
      Virial theorem: -V/T =      2.002038
@    MULPOP   C_a     0.65; C_b     0.59; C_c     0.64; C_d     0.58; C_e     0.68; C_f     0.56; C_g     0.65; C_h     0.56; C_i     0.69; C_j     0.57; 
@             C_k     0.70; C_l     0.58; C_m     0.80; C_n     0.35; C_o     0.74; C_p     0.89; C_q     0.70; C_r     0.55; C_s     0.67; C_t     0.59; 
@             C_u     0.66; C_v     0.56; C_w     0.67; C_x     0.58; C_y     0.82; C_z     0.53; C_{     0.71; C_|     0.57; C_}     1.32; C_~     0.42; 
@    MULPOP    dipole moment & components:      9.2419;        3.3147      8.6271      0.0000
 -----------------------------------------------------------------------------
  15  Screening settings (-IFTHRS, JTDIIS, DIFDEN, times)  -14   15    T  7.13D+00  7.13D+00
@ 15    -1490.03282014        1.15568D-04   -1.67D-08    8
      Virial theorem: -V/T =      2.002038
@    MULPOP   C_a     0.65; C_b     0.59; C_c     0.64; C_d     0.58; C_e     0.68; C_f     0.56; C_g     0.65; C_h     0.56; C_i     0.69; C_j     0.57; 
@             C_k     0.70; C_l     0.58; C_m     0.80; C_n     0.35; C_o     0.74; C_p     0.89; C_q     0.70; C_r     0.55; C_s     0.67; C_t     0.59; 
@             C_u     0.66; C_v     0.56; C_w     0.67; C_x     0.58; C_y     0.82; C_z     0.53; C_{     0.71; C_|     0.57; C_}     1.32; C_~     0.42; 
@    MULPOP    dipole moment & components:      9.2379;        3.3128      8.6235      0.0000
 -----------------------------------------------------------------------------
  16  Screening settings (-IFTHRS, JTDIIS, DIFDEN, times)  -14   16    T  6.87D+00  6.87D+00
@ 16    -1490.03282015        5.15564D-05   -2.43D-09    8
      Virial theorem: -V/T =      2.002038
@    MULPOP   C_a     0.65; C_b     0.59; C_c     0.64; C_d     0.58; C_e     0.68; C_f     0.56; C_g     0.65; C_h     0.56; C_i     0.69; C_j     0.57; 
@             C_k     0.70; C_l     0.58; C_m     0.80; C_n     0.35; C_o     0.74; C_p     0.89; C_q     0.70; C_r     0.55; C_s     0.67; C_t     0.59; 
@             C_u     0.66; C_v     0.56; C_w     0.67; C_x     0.58; C_y     0.82; C_z     0.53; C_{     0.71; C_|     0.57; C_}     1.32; C_~     0.42; 
@    MULPOP    dipole moment & components:      9.2372;        3.3125      8.6229      0.0000
 -----------------------------------------------------------------------------
  17  Screening settings (-IFTHRS, JTDIIS, DIFDEN, times)  -14   17    T  6.80D+00  6.80D+00
@ 17    -1490.03282015        3.60415D-05   -9.09D-10    8
      Virial theorem: -V/T =      2.002038
@    MULPOP   C_a     0.65; C_b     0.59; C_c     0.64; C_d     0.58; C_e     0.68; C_f     0.56; C_g     0.65; C_h     0.56; C_i     0.69; C_j     0.57; 
@             C_k     0.70; C_l     0.58; C_m     0.80; C_n     0.35; C_o     0.74; C_p     0.89; C_q     0.70; C_r     0.55; C_s     0.67; C_t     0.59; 
@             C_u     0.66; C_v     0.56; C_w     0.67; C_x     0.58; C_y     0.82; C_z     0.53; C_{     0.71; C_|     0.57; C_}     1.32; C_~     0.42; 
@    MULPOP    dipole moment & components:      9.2369;        3.3123      8.6226      0.0000
 -----------------------------------------------------------------------------
  18  Screening settings (-IFTHRS, JTDIIS, DIFDEN, times)  -14   18    T  6.74D+00  6.74D+00
@ 18    -1490.03282015        1.64859D-05   -3.30D-10    8
      Virial theorem: -V/T =      2.002038
@    MULPOP   C_a     0.65; C_b     0.59; C_c     0.64; C_d     0.58; C_e     0.68; C_f     0.56; C_g     0.65; C_h     0.56; C_i     0.69; C_j     0.57; 
@             C_k     0.70; C_l     0.58; C_m     0.80; C_n     0.35; C_o     0.74; C_p     0.89; C_q     0.70; C_r     0.55; C_s     0.67; C_t     0.59; 
@             C_u     0.66; C_v     0.56; C_w     0.67; C_x     0.58; C_y     0.82; C_z     0.53; C_{     0.71; C_|     0.57; C_}     1.32; C_~     0.42; 
@    MULPOP    dipole moment & components:      9.2367;        3.3121      8.6224      0.0000
 -----------------------------------------------------------------------------
  19  Screening settings (-IFTHRS, JTDIIS, DIFDEN, times)  -14   19    T  6.71D+00  6.71D+00
@ 19    -1490.03282015        6.85689D-06   -9.91D-11    8

@ *** DIIS converged in  19 iterations !
@     Converged SCF energy, gradient:  -1490.032820147126    6.86D-06
    - total time used in SIRFCK :              0.00 seconds


 *** SCF orbital energy analysis ***

 Only the 20 lowest virtual orbital energies printed in each symmetry.

 Number of electrons :  256
 Orbital occupations :  128

 Sym       Hartree-Fock orbital energies

1 A     -20.59904731   -20.59619885   -15.84644687   -15.59777730   -11.30610890
        -11.29732951   -11.29580966   -11.28599214   -11.27800896   -11.27227638
        -11.26788845   -11.26773135   -11.26441374   -11.26374869   -11.26157651
        -11.26145853   -11.25926935   -11.25918842   -11.25723120   -11.25710885
        -11.25531109   -11.25523071   -11.25490622   -11.25347533   -11.25343908
        -11.25181085   -11.25153709   -11.25033577   -11.24975749   -11.24951270
        -11.24725131   -11.24460459   -11.24137913   -11.23734971   -11.23267205
        -11.23035304    -1.58527770    -1.38300096    -1.23748696    -1.14818185
         -1.13441620    -1.12673495    -1.12036358    -1.11389678    -1.10641361
         -1.09730482    -1.08651796    -1.07414870    -1.06028252    -1.04498672
         -1.02832602    -1.01036698    -0.99119503    -0.97097044    -0.95072709
         -0.93806760    -0.89836394    -0.87587826    -0.85313669    -0.83099060
         -0.81105744    -0.79538944    -0.78809208    -0.78168867    -0.77659969
         -0.77141396    -0.76732844    -0.76445316    -0.75850556    -0.75646555
         -0.74799187    -0.74646536    -0.73797944    -0.71563459    -0.71524828
         -0.69780545    -0.67944893    -0.67732390    -0.67464081    -0.66325293
         -0.65878160    -0.64977080    -0.64150075    -0.63341277    -0.62610180
         -0.61322895    -0.61110301    -0.60098545    -0.59075192    -0.58584814
         -0.57475601    -0.56958856    -0.56339642    -0.55367440    -0.55232908
         -0.54467856    -0.53863384    -0.53703233    -0.53056750    -0.52635800
         -0.52506264    -0.52160091    -0.52032153    -0.51610459    -0.51218197
         -0.50842978    -0.50460729    -0.50115888    -0.50052278    -0.49447836
         -0.49059283    -0.48294200    -0.48237433    -0.47917220    -0.47463497
         -0.46428891    -0.45155444    -0.44080348    -0.43637582    -0.41894714
         -0.39919962    -0.37720912    -0.35307068    -0.32697748    -0.29932969
         -0.27094191    -0.24336267    -0.21857317     0.00003080     0.02234032
          0.02456231     0.02683381     0.02985124     0.03073498     0.03244575
          0.03353514     0.03717950     0.03791910     0.04061903     0.04299923
          0.04633072     0.04980210     0.05159911     0.05293698     0.05745943
          0.06091186     0.06586313     0.06999202

    E(LUMO) :     0.00003080 au (symmetry 1)
  - E(HOMO) :    -0.21857317 au (symmetry 1)
  ------------------------------------------
    gap     :     0.21860397 au

 --- Writing SIRIFC interface file

 CPU and wall time for SCF :     378.146     378.371


                       .-----------------------------------.
                       | --- Final results from SIRIUS --- |
                       `-----------------------------------'


@    Spin multiplicity:           1
@    Spatial symmetry:            1 ( irrep  A   in C1  )
@    Total charge of molecule:    0

@    Final HF energy:           -1490.032820147126                 
@    Nuclear repulsion:          2402.763166227178
@    Electronic energy:         -3892.795986374304

@    Final gradient norm:           0.000006856891

 
     Date and time (Linux)  : Tue May 27 14:28:15 2025
     Host name              : xm059                                   

File label for MO orbitals:  27May25   FOCKDIIS

 (Only coefficients > 0.0100 are printed.)

 Molecular orbitals for symmetry species 1  (A  )
 ------------------------------------------------

    Orbital       119      120      121      122      123      124      125
   7 C_a :2pz   -0.0148  -0.1992   0.0100  -0.1998  -0.0199  -0.1994   0.0445
  13 C_a :2pz   -0.0002  -0.0067   0.0001  -0.0103  -0.0006  -0.0173   0.0084
  15 C_a :3d1-  -0.0088  -0.0026   0.0109  -0.0034  -0.0126  -0.0040   0.0141
  30 C_b :2pz   -0.1112  -0.1589   0.1269  -0.1431  -0.1459  -0.1227   0.1620
  36 C_b :2pz   -0.0036  -0.0051   0.0053  -0.0072  -0.0111  -0.0106   0.0173
  38 C_b :3d1-  -0.0058   0.0084   0.0062   0.0112  -0.0048   0.0141   0.0013
  53 C_c :2pz   -0.1969  -0.0016   0.1975   0.0751  -0.1662   0.1496   0.0949
  59 C_c :2pz   -0.0052  -0.0002   0.0082   0.0032  -0.0112   0.0128   0.0090
  61 C_c :3d1-  -0.0041   0.0097   0.0015   0.0122   0.0029   0.0129  -0.0079
  76 C_d :2pz   -0.1879   0.1083   0.1355   0.1746  -0.0470   0.1977  -0.0504
  82 C_d :2pz   -0.0048   0.0036   0.0057   0.0099  -0.0017   0.0172  -0.0034
  84 C_d :3d1-   0.0054   0.0067  -0.0104   0.0020   0.0135  -0.0062  -0.0110
  99 C_e :2pz   -0.0877   0.2013  -0.0582   0.1563   0.1792   0.0132  -0.1899
 105 C_e :2pz   -0.0027   0.0067  -0.0024   0.0080   0.0108   0.0017  -0.0218
 107 C_e :3d1-   0.0065   0.0038  -0.0112  -0.0041   0.0099  -0.0123  -0.0021
 122 C_f :2pz    0.0118   0.1771  -0.1601   0.0388   0.1925  -0.1254  -0.0871
 128 C_f :2pz    0.0002   0.0061  -0.0073   0.0008   0.0122  -0.0111  -0.0118
 130 C_f :3d1-   0.0086  -0.0073  -0.0038  -0.0125  -0.0078  -0.0065   0.0153
 135 C_f :3d1-   0.0010  -0.0019  -0.0013  -0.0051  -0.0036  -0.0037   0.0100
 145 C_g :2pz    0.1500   0.0374  -0.1880  -0.1677   0.0012  -0.1686   0.1908
 151 C_g :2pz    0.0045   0.0007  -0.0067  -0.0072   0.0019  -0.0153   0.0236
 153 C_g :3d1-   0.0076  -0.0089   0.0009  -0.0097  -0.0121   0.0024   0.0111
 168 C_h :2pz    0.1968  -0.0758  -0.1049  -0.1990  -0.1313  -0.0441   0.1825
 171 C_h :2pz   -0.0103   0.0085  -0.0037   0.0014   0.0050  -0.0069   0.0071
 174 C_h :2pz    0.0052  -0.0027  -0.0038  -0.0101  -0.0096  -0.0028   0.0206
 176 C_h :3d1-  -0.0003  -0.0081   0.0111   0.0050  -0.0064   0.0143  -0.0119
 191 C_i :2pz    0.1805  -0.1962   0.0922  -0.0656  -0.1836   0.1939  -0.0923
 197 C_i :2pz    0.0037  -0.0050   0.0019  -0.0053  -0.0135   0.0174  -0.0132
 199 C_i :3d1-  -0.0018  -0.0056   0.0109   0.0095   0.0012   0.0093  -0.0144
 214 C_j :2pz    0.1115  -0.1967   0.1792   0.0697  -0.0757   0.1804  -0.1843
 220 C_j :2pz    0.0036  -0.0070   0.0083   0.0053  -0.0027   0.0135  -0.0182
 222 C_j :3d1-  -0.0086   0.0053   0.0021   0.0099   0.0137  -0.0108   0.0020
 237 C_k :2pz   -0.0334  -0.0893   0.1787   0.2058   0.1621  -0.0626  -0.0585
 243 C_k :2pz    0.0002  -0.0042   0.0086   0.0116   0.0112  -0.0058  -0.0046
 245 C_k :3d1-  -0.0085   0.0073  -0.0024   0.0045   0.0109  -0.0135   0.0102
 260 C_l :2pz   -0.1238   0.0227   0.0829   0.1645   0.1985  -0.1719   0.0882
 263 C_l :2pz    0.0107  -0.0076   0.0048   0.0026   0.0009   0.0005  -0.0023
 266 C_l :2pz   -0.0051   0.0030   0.0006   0.0052   0.0097  -0.0115   0.0053
 268 C_l :3d1-  -0.0055   0.0096  -0.0115  -0.0101  -0.0054  -0.0017   0.0092
 283 C_m :2pz   -0.2075   0.1734  -0.1136  -0.0364   0.0471  -0.1244   0.1824
 289 C_m :2pz   -0.0057   0.0059  -0.0048  -0.0018   0.0036  -0.0112   0.0212
 291 C_m :3d1-  -0.0039   0.0074  -0.0103  -0.0116  -0.0106   0.0069  -0.0008
 306 C_n :2pz   -0.1989   0.2034  -0.1871  -0.1503  -0.0945   0.0242   0.0527
 309 C_n :2pz    0.0118  -0.0110   0.0100   0.0090   0.0081  -0.0076   0.0079
 312 C_n :2pz   -0.0023   0.0029  -0.0033  -0.0032  -0.0017  -0.0026   0.0116
 314 C_n :3d1-   0.0049  -0.0025  -0.0010  -0.0052  -0.0095   0.0134  -0.0162
 319 C_n :3d1-   0.0014  -0.0009  -0.0005  -0.0027  -0.0053   0.0083  -0.0111
 329 C_o :2pz   -0.1096   0.1393  -0.1665  -0.1895  -0.2064   0.2153  -0.2141
 335 C_o :2pz   -0.0042   0.0060  -0.0085  -0.0118  -0.0161   0.0213  -0.0278
 352 C_p :2pz    0.0003   0.0191  -0.0419  -0.0671  -0.0937   0.1200  -0.1434
 358 C_p :2pz   -0.0045   0.0060  -0.0077  -0.0098  -0.0127   0.0168  -0.0224
 360 C_p :3d1-   0.0109  -0.0126   0.0142   0.0156   0.0167  -0.0173   0.0173
 365 C_p :3d1-   0.0018  -0.0036   0.0055   0.0074   0.0091  -0.0105   0.0114
 375 C_q :2pz   -0.1449  -0.1938  -0.1168  -0.0433   0.1779   0.1831   0.0414
 381 C_q :2pz   -0.0032  -0.0058  -0.0044  -0.0027   0.0131   0.0173   0.0016
 383 C_q :3d1-  -0.0079  -0.0023   0.0063  -0.0122   0.0102   0.0007  -0.0104
 398 C_r :2pz   -0.1878  -0.1459   0.0049  -0.1547   0.1876   0.0750  -0.0965
 404 C_r :2pz   -0.0052  -0.0047   0.0013  -0.0096   0.0139   0.0078  -0.0082
 406 C_r :3d1-   0.0013   0.0091   0.0111  -0.0037  -0.0086  -0.0148  -0.0074
 421 C_s :2pz   -0.1485   0.0233   0.1787  -0.1638  -0.0173  -0.1853  -0.1549
 427 C_s :2pz   -0.0051  -0.0003   0.0066  -0.0085  -0.0014  -0.0177  -0.0176
 429 C_s :3d1-   0.0034   0.0101   0.0079   0.0029  -0.0125  -0.0107   0.0021
 444 C_t :2pz   -0.0621   0.1285   0.1898  -0.0517  -0.1429  -0.1843  -0.0266
 450 C_t :2pz   -0.0015   0.0050   0.0084  -0.0022  -0.0108  -0.0174  -0.0069
 452 C_t :3d1-   0.0094   0.0055  -0.0061   0.0127  -0.0048   0.0106   0.0143
 467 C_u :2pz    0.0958   0.1958   0.0503   0.1631  -0.1618   0.0629   0.2030
 473 C_u :2pz    0.0031   0.0071   0.0031   0.0080  -0.0109   0.0065   0.0256
 475 C_u :3d1-   0.0090   0.0020  -0.0094   0.0101   0.0030   0.0139   0.0073
 490 C_v :2pz    0.1685   0.1475  -0.0757   0.1952  -0.0406   0.1719   0.1417
 496 C_v :2pz    0.0047   0.0046  -0.0041   0.0109  -0.0023   0.0158   0.0192
 498 C_v :3d1-   0.0021  -0.0090  -0.0088  -0.0054   0.0135   0.0008  -0.0149
 503 C_v :3d1-  -0.0002  -0.0024  -0.0031  -0.0020   0.0069   0.0004  -0.0101
 513 C_w :2pz    0.1878  -0.0186  -0.1980   0.0521   0.1834   0.1045  -0.1611
 519 C_w :2pz    0.0050  -0.0004  -0.0085   0.0033   0.0118   0.0088  -0.0220
 521 C_w :3d1-   0.0000  -0.0100  -0.0046  -0.0100   0.0095  -0.0076  -0.0137
 536 C_x :2pz    0.1315  -0.1249  -0.1673  -0.0827   0.1871  -0.0399  -0.1964
 542 C_x :2pz    0.0039  -0.0044  -0.0065  -0.0053   0.0131  -0.0038  -0.0234
 544 C_x :3d1-  -0.0084  -0.0058   0.0089  -0.0090  -0.0088  -0.0116   0.0089
 559 C_y :2pz    0.1660   0.1922   0.1743  -0.1114   0.0139  -0.0955  -0.1842
 562 C_y :2pz   -0.0024  -0.0036  -0.0047   0.0058  -0.0069  -0.0085  -0.0106
 565 C_y :2pz    0.0036   0.0059   0.0072  -0.0061   0.0006  -0.0109  -0.0276
 567 C_y :3d1-   0.0069   0.0038  -0.0010   0.0065  -0.0112  -0.0137  -0.0131
 582 C_z :2pz    0.1846   0.1554   0.0810   0.0192  -0.1159  -0.1792  -0.1899
 588 C_z :2pz    0.0083   0.0083   0.0058  -0.0005  -0.0071  -0.0154  -0.0236
 590 C_z :3d1-  -0.0037  -0.0087  -0.0120   0.0117  -0.0066   0.0022   0.0118
 605 C_{ :2pz    0.1053  -0.0102  -0.1278   0.1945  -0.1729  -0.0632   0.0883
 611 C_{ :2pz    0.0028  -0.0006  -0.0059   0.0114  -0.0130  -0.0053   0.0157
 613 C_{ :3d1-  -0.0057  -0.0099  -0.0106   0.0065   0.0012   0.0095   0.0145
 628 C_| :2pz    0.0047  -0.1181  -0.1879   0.1663  -0.0599   0.0784   0.1776
 634 C_| :2pz   -0.0015  -0.0061  -0.0101   0.0104  -0.0049   0.0061   0.0197
 636 C_| :3d1-  -0.0093  -0.0060   0.0017  -0.0101   0.0140   0.0093  -0.0026
 651 C_} :2pz   -0.1771  -0.1919  -0.2038   0.2113  -0.2123  -0.2043  -0.1843
 657 C_} :2pz   -0.0116  -0.0134  -0.0151   0.0172  -0.0197  -0.0222  -0.0234
 674 C_~ :2pz   -0.1741  -0.1697  -0.1577   0.1385  -0.1132  -0.0833  -0.0521
 682 C_~ :3d1-   0.0054   0.0079   0.0106  -0.0132   0.0154   0.0167   0.0165
 697 C_ :2pz   -0.0785  -0.0246   0.0369  -0.1003   0.1577   0.1995   0.2152
 703 C_ :2pz    0.0016   0.0027   0.0048  -0.0084   0.0141   0.0219   0.0300
 705 C_ :3d1-   0.0064   0.0090   0.0110  -0.0121   0.0119   0.0105   0.0080
 720 C_:2pz    0.0248   0.0865   0.1394  -0.1755   0.1881   0.1746   0.1380
 726 C_:2pz   -0.0022   0.0002   0.0035  -0.0075   0.0115   0.0153   0.0192
 728 C_:3d1-   0.0090   0.0076   0.0043   0.0007  -0.0068  -0.0127  -0.0168
 733 C_:3d1-   0.0020   0.0021   0.0015   0.0006  -0.0043  -0.0088  -0.0126
 743 N_a :2pz    0.1492  -0.1592   0.1662   0.1713   0.1746  -0.1756   0.1733
 746 N_a :2pz    0.0126  -0.0141   0.0156   0.0171   0.0186  -0.0200   0.0211
 749 N_a :2pz    0.0186  -0.0216   0.0248   0.0284   0.0324  -0.0371   0.0426
 766 N_b :2pz    0.0161   0.0138   0.0097  -0.0046  -0.0011  -0.0070  -0.0121
 772 N_b :2pz    0.0101   0.0096   0.0087  -0.0074   0.0060   0.0046   0.0035
 789 O_a :2pz   -0.0032   0.0489   0.0583  -0.0632   0.0654   0.0648   0.0603
 812 O_b :2pz    0.1147   0.0707   0.0677  -0.0672   0.0662   0.0635   0.0578

    Orbital       126      127      128      129      130      131      132
   2 C_a :1s     0.0000  -0.0000   0.0000  -0.0000   0.0021   0.0000  -0.0176
   3 C_a :1s    -0.0000   0.0000  -0.0000   0.0000  -0.0011  -0.0000   0.1196
   4 C_a :1s    -0.0000  -0.0000  -0.0000   0.0000  -0.4092  -0.0000   5.6675
   5 C_a :2px   -0.0000   0.0000  -0.0000   0.0000   0.0018   0.0000  -0.0118
   7 C_a :2pz   -0.1941  -0.0945   0.2011  -0.0897  -0.0000  -0.1967  -0.0000
   8 C_a :2px   -0.0000  -0.0000   0.0000  -0.0000  -0.0490   0.0000   0.0085
   9 C_a :2py    0.0000  -0.0000   0.0000  -0.0000  -0.0378   0.0000  -0.1377
  10 C_a :2pz   -0.0073  -0.0090   0.0138  -0.0083  -0.0000  -0.0270  -0.0000
  11 C_a :2px   -0.0000   0.0000   0.0000  -0.0000   0.1153   0.0000  -0.9794
  12 C_a :2py   -0.0000   0.0000   0.0000  -0.0000  -3.4557  -0.0000  -0.8602
  13 C_a :2pz   -0.0311  -0.0306   0.0545  -0.0526  -0.0000  -0.1806  -0.0000
  15 C_a :3d1-  -0.0051  -0.0151   0.0112   0.0141  -0.0000   0.0126  -0.0000
  19 C_a :3d2-  -0.0000   0.0000   0.0000   0.0000   0.0107  -0.0000   0.0429
  20 C_a :3d1-  -0.0042  -0.0109   0.0092   0.0142   0.0000   0.0133   0.0000
  21 C_a :3d0   -0.0000   0.0000   0.0000  -0.0000   0.0069  -0.0000  -0.0189
  23 C_a :3d2+   0.0000   0.0000  -0.0000   0.0000   0.0391  -0.0000   0.0324
  25 C_b :1s    -0.0000   0.0000  -0.0000  -0.0000   0.0018   0.0000   0.0163
  26 C_b :1s     0.0000  -0.0000   0.0000   0.0000   0.0048  -0.0000  -0.0473
  27 C_b :1s     0.0000  -0.0000   0.0000  -0.0000  -0.2335   0.0000  -4.8204
  28 C_b :2px   -0.0000   0.0000  -0.0000   0.0000  -0.0015  -0.0000  -0.0146
  30 C_b :2pz   -0.1048  -0.1739   0.1457   0.1524   0.0000   0.1631   0.0000
  31 C_b :2px   -0.0000   0.0000  -0.0000   0.0000   0.0394  -0.0000   0.0523
  32 C_b :2py    0.0000  -0.0000   0.0000  -0.0000  -0.0534   0.0000  -0.1233
  33 C_b :2pz   -0.0085  -0.0082   0.0124   0.0181   0.0000   0.0195  -0.0000
  34 C_b :2px   -0.0000   0.0000  -0.0000   0.0000  -0.1575  -0.0000  -0.9056
  35 C_b :2py    0.0000   0.0000  -0.0000  -0.0000  -3.5215  -0.0000   0.0632
  36 C_b :2pz   -0.0225  -0.0301   0.0455   0.1128   0.0000   0.1339   0.0000
  38 C_b :3d1-   0.0161   0.0052  -0.0174   0.0072   0.0000   0.0173   0.0000
  42 C_b :3d2-   0.0000  -0.0000   0.0000  -0.0000  -0.0175   0.0000  -0.0389
  43 C_b :3d1-   0.0117   0.0047  -0.0143   0.0072  -0.0000   0.0180  -0.0000
  44 C_b :3d0    0.0000  -0.0000  -0.0000   0.0000   0.0052   0.0000   0.0155
  46 C_b :3d2+  -0.0000   0.0000  -0.0000   0.0000   0.0399  -0.0000   0.0116
  48 C_c :1s     0.0000  -0.0000   0.0000  -0.0000   0.0019   0.0000  -0.0126
  49 C_c :1s    -0.0000   0.0000  -0.0000   0.0000  -0.0163  -0.0000   0.0873
  50 C_c :1s    -0.0000   0.0000  -0.0000   0.0000  -0.3146  -0.0000   3.9711
  53 C_c :2pz    0.1999   0.0225  -0.2175   0.0715  -0.0000   0.1919   0.0000
  54 C_c :2px    0.0000  -0.0000   0.0000  -0.0000  -0.0397   0.0000   0.0099
  55 C_c :2py    0.0000  -0.0000   0.0000  -0.0000  -0.0829   0.0000  -0.1130
  56 C_c :2pz    0.0098   0.0051  -0.0151   0.0062  -0.0000   0.0251   0.0000
  57 C_c :2px    0.0000  -0.0000   0.0000  -0.0000  -0.0094   0.0000  -0.6642
  58 C_c :2py   -0.0000  -0.0000   0.0000   0.0000  -4.0638  -0.0000  -0.8734
  59 C_c :2pz    0.0354   0.0148  -0.0597   0.0395  -0.0000   0.1695   0.0000
  61 C_c :3d1-   0.0116   0.0120  -0.0130  -0.0123  -0.0000  -0.0157  -0.0000
  65 C_c :3d2-  -0.0000   0.0000  -0.0000   0.0000   0.0261  -0.0000   0.0352
  66 C_c :3d1-   0.0083   0.0083  -0.0107  -0.0123   0.0000  -0.0165   0.0000
  67 C_c :3d0   -0.0000   0.0000  -0.0000  -0.0000   0.0063   0.0000  -0.0142
  69 C_c :3d2+  -0.0000   0.0000  -0.0000   0.0000   0.0291  -0.0000   0.0187
  71 C_d :1s    -0.0000   0.0000  -0.0000  -0.0000   0.0008  -0.0000   0.0109
  72 C_d :1s    -0.0000   0.0000   0.0000  -0.0000   0.0195   0.0000  -0.0295
  73 C_d :1s     0.0000  -0.0000  -0.0000  -0.0000  -0.1082   0.0000  -3.2493
  76 C_d :2pz    0.1744   0.1275  -0.1681  -0.1314   0.0000  -0.1928  -0.0000
  77 C_d :2px   -0.0000   0.0000   0.0000   0.0000   0.0592   0.0000   0.0308
  78 C_d :2py    0.0000  -0.0000   0.0000   0.0000  -0.0764   0.0000  -0.0991
  79 C_d :2pz    0.0097   0.0043  -0.0136  -0.0157   0.0000  -0.0239   0.0000
  80 C_d :2px    0.0000   0.0000   0.0000  -0.0000   0.1117   0.0000  -0.6025
  81 C_d :2py    0.0000   0.0000  -0.0000  -0.0000  -3.5937  -0.0000  -0.0761
  82 C_d :2pz    0.0298   0.0175  -0.0507  -0.0965   0.0000  -0.1629  -0.0000
  84 C_d :3d1-  -0.0145   0.0009   0.0186  -0.0057   0.0000  -0.0163  -0.0000
  88 C_d :3d2-  -0.0000  -0.0000   0.0000   0.0000  -0.0263  -0.0000  -0.0314
  89 C_d :3d1-  -0.0109   0.0000   0.0153  -0.0056  -0.0000  -0.0170   0.0000
  90 C_d :3d0   -0.0000   0.0000   0.0000   0.0000   0.0035  -0.0000   0.0104
  92 C_d :3d2+  -0.0000   0.0000  -0.0000   0.0000   0.0189   0.0000   0.0048
  95 C_e :1s    -0.0000   0.0000   0.0000   0.0000  -0.0283   0.0000   0.0599
  96 C_e :1s     0.0000   0.0000   0.0000   0.0000  -0.2350   0.0000   2.6792
  99 C_e :2pz   -0.1494   0.0537   0.2280  -0.0547  -0.0000  -0.1740  -0.0000
 100 C_e :2px    0.0000  -0.0000   0.0000  -0.0000  -0.0265  -0.0000   0.0125
 101 C_e :2py   -0.0000  -0.0000   0.0000   0.0000  -0.0880   0.0000  -0.0887
 102 C_e :2pz   -0.0096  -0.0005   0.0161  -0.0043  -0.0000  -0.0215   0.0000
 103 C_e :2px   -0.0000   0.0000  -0.0000  -0.0000   0.1414  -0.0000  -0.4342
 104 C_e :2py   -0.0000   0.0000   0.0000   0.0000  -4.2452   0.0000  -0.7580
 105 C_e :2pz   -0.0297   0.0028   0.0636  -0.0282  -0.0000  -0.1472  -0.0000
 107 C_e :3d1-  -0.0150  -0.0075   0.0147   0.0104  -0.0000   0.0176   0.0000
 111 C_e :3d2-  -0.0000   0.0000   0.0000   0.0000   0.0215  -0.0000   0.0277
 112 C_e :3d1-  -0.0102  -0.0048   0.0120   0.0105   0.0000   0.0183  -0.0000
 113 C_e :3d0   -0.0000   0.0000  -0.0000  -0.0000   0.0048  -0.0000  -0.0104
 115 C_e :3d2+  -0.0000   0.0000   0.0000   0.0000   0.0259   0.0000   0.0080
[...]

       No.  Residual tot.,    conf., and orb.    Bnorm      Frequency 
      ----------------------------------------------------------------
         1    2.44696D-01  0.00D+00  2.45D-01  1.45D+02    0.00000D+00
         2    2.53200D-01  0.00D+00  2.53D-01  1.51D+02    1.49000D-02
         3    2.82210D-01  0.00D+00  2.82D-01  1.69D+02    2.98000D-02

 ** RSPCTL MICROITERATION NUMBER    7

       No.  Residual tot.,    conf., and orb.    Bnorm      Frequency 
      ----------------------------------------------------------------
         1    6.08450D-02  0.00D+00  6.08D-02  1.45D+02    0.00000D+00
         2    6.29844D-02  0.00D+00  6.30D-02  1.51D+02    1.49000D-02
         3    7.03918D-02  0.00D+00  7.04D-02  1.69D+02    2.98000D-02

 *** THE REQUESTED    3 SOLUTION VECTORS CONVERGED

 Convergence of RSP solution vectors, threshold = 1.00D-03
 ---------------------------------------------------------------
 (dimension of paired reduced space:   42)
 RSP solution vector no.    1; norm of residual   4.18D-04
 RSP solution vector no.    2; norm of residual   4.17D-04
 RSP solution vector no.    3; norm of residual   4.16D-04

 *** RSPCTL MICROITERATIONS CONVERGED

@ QRLRVE: SINGLET SOLUTION FOR SYMMETRY    1  ( A  )    LABEL   YDIPLEN     FREQUENCY   0.000000D+00

@ QRLRVE:  << XDIPLEN  ; YDIPLEN  >> (   0.00000):    -303.563254486    

@ QRLRVE:  << YDIPLEN  ; YDIPLEN  >> (   0.00000):     3425.07625729    

@ QRLRVE:  << ZDIPLEN  ; YDIPLEN  >> (   0.00000):    1.066997279426E-13

@ QRLRVE: SINGLET SOLUTION FOR SYMMETRY    1  ( A  )    LABEL   YDIPLEN     FREQUENCY   0.149000D-01

@ QRLRVE:  << XDIPLEN  ; YDIPLEN  >> (   0.01490):    -311.970507773    

@ QRLRVE:  << YDIPLEN  ; YDIPLEN  >> (   0.01490):     3511.45181214    

@ QRLRVE:  << ZDIPLEN  ; YDIPLEN  >> (   0.01490):    1.100053388737E-13

@ QRLRVE: SINGLET SOLUTION FOR SYMMETRY    1  ( A  )    LABEL   YDIPLEN     FREQUENCY   0.298000D-01

@ QRLRVE:  << XDIPLEN  ; YDIPLEN  >> (   0.02980):    -340.280985813    

@ QRLRVE:  << YDIPLEN  ; YDIPLEN  >> (   0.02980):     3802.37209207    

@ QRLRVE:  << ZDIPLEN  ; YDIPLEN  >> (   0.02980):    1.211495804179E-13


 QRLRVE -- linear response calculation for symmetry  1  ( A  )
 QRLRVE -- operator label : ZDIPLEN 
 QRLRVE -- operator spin  :   0
 QRLRVE -- frequencies :  0.000000  0.014900  0.029800



 ---  SOLVING SETS OF LINEAR EQUATIONS FOR LINEAR RESPONSE PROPERTIES ---

 Operator symmetry = 1  ( A  ); triplet =   F


 ** RSPCTL MICROITERATION NUMBER    1

       No.  Residual tot.,    conf., and orb.    Bnorm      Frequency 
      ----------------------------------------------------------------
         1    4.52255D+00  0.00D+00  4.52D+00  1.24D+01    0.00000D+00
         2    4.52495D+00  0.00D+00  4.52D+00  1.24D+01    1.49000D-02
         3    4.53216D+00  0.00D+00  4.53D+00  1.25D+01    2.98000D-02

 ** RSPCTL MICROITERATION NUMBER    2

       No.  Residual tot.,    conf., and orb.    Bnorm      Frequency 
      ----------------------------------------------------------------
         1    9.92556D-01  0.00D+00  9.93D-01  1.29D+01    0.00000D+00
         2    9.94220D-01  0.00D+00  9.94D-01  1.30D+01    1.49000D-02
         3    9.99245D-01  0.00D+00  9.99D-01  1.30D+01    2.98000D-02

 ** RSPCTL MICROITERATION NUMBER    3

       No.  Residual tot.,    conf., and orb.    Bnorm      Frequency 
      ----------------------------------------------------------------
         1    2.00720D-01  0.00D+00  2.01D-01  1.30D+01    0.00000D+00
         2    2.01416D-01  0.00D+00  2.01D-01  1.30D+01    1.49000D-02
         3    2.03524D-01  0.00D+00  2.04D-01  1.31D+01    2.98000D-02

 ** RSPCTL MICROITERATION NUMBER    4

       No.  Residual tot.,    conf., and orb.    Bnorm      Frequency 
      ----------------------------------------------------------------
         1    5.95743D-02  0.00D+00  5.96D-02  1.30D+01    0.00000D+00
         2    6.00919D-02  0.00D+00  6.01D-02  1.30D+01    1.49000D-02
         3    6.16852D-02  0.00D+00  6.17D-02  1.31D+01    2.98000D-02

 ** RSPCTL MICROITERATION NUMBER    5

       No.  Residual tot.,    conf., and orb.    Bnorm      Frequency 
      ----------------------------------------------------------------
         1    1.99699D-02  0.00D+00  2.00D-02  1.30D+01    0.00000D+00
         2    2.02764D-02  0.00D+00  2.03D-02  1.30D+01    1.49000D-02
         3    2.12269D-02  0.00D+00  2.12D-02  1.31D+01    2.98000D-02

 ** RSPCTL MICROITERATION NUMBER    6

       No.  Residual tot.,    conf., and orb.    Bnorm      Frequency 
      ----------------------------------------------------------------
         1    7.04162D-03  0.00D+00  7.04D-03  1.30D+01    0.00000D+00
         2    7.20108D-03  0.00D+00  7.20D-03  1.30D+01    1.49000D-02
         3    7.69880D-03  0.00D+00  7.70D-03  1.31D+01    2.98000D-02

 *** THE REQUESTED    3 SOLUTION VECTORS CONVERGED

 Convergence of RSP solution vectors, threshold = 1.00D-03
 ---------------------------------------------------------------
 (dimension of paired reduced space:   36)
 RSP solution vector no.    1; norm of residual   5.43D-04
 RSP solution vector no.    2; norm of residual   5.54D-04
 RSP solution vector no.    3; norm of residual   5.89D-04

 *** RSPCTL MICROITERATIONS CONVERGED

@ QRLRVE: SINGLET SOLUTION FOR SYMMETRY    1  ( A  )    LABEL   ZDIPLEN     FREQUENCY   0.000000D+00

@ QRLRVE:  << XDIPLEN  ; ZDIPLEN  >> (   0.00000):   -1.721060700644E-15

@ QRLRVE:  << YDIPLEN  ; ZDIPLEN  >> (   0.00000):    3.180485330870E-14

@ QRLRVE:  << ZDIPLEN  ; ZDIPLEN  >> (   0.00000):     245.026715020    

@ QRLRVE: SINGLET SOLUTION FOR SYMMETRY    1  ( A  )    LABEL   ZDIPLEN     FREQUENCY   0.149000D-01

@ QRLRVE:  << XDIPLEN  ; ZDIPLEN  >> (   0.01490):   -1.757334983955E-15

@ QRLRVE:  << YDIPLEN  ; ZDIPLEN  >> (   0.01490):    3.281026958831E-14

@ QRLRVE:  << ZDIPLEN  ; ZDIPLEN  >> (   0.01490):     245.216092173    

@ QRLRVE: SINGLET SOLUTION FOR SYMMETRY    1  ( A  )    LABEL   ZDIPLEN     FREQUENCY   0.298000D-01

@ QRLRVE:  << XDIPLEN  ; ZDIPLEN  >> (   0.02980):   -1.896406765840E-15

@ QRLRVE:  << YDIPLEN  ; ZDIPLEN  >> (   0.02980):    3.640966523469E-14

@ QRLRVE:  << ZDIPLEN  ; ZDIPLEN  >> (   0.02980):     245.787294350    
 
 ======================================================================
 ---  L I N E A R   R E S P O N S E   F U N C T I O N S --- 
 ======================================================================

 The -<<A;B>>(omega_b) functions from vectors generated
 in a *QUADRA calculation of <<A;B,C>>(omega_b,omega_c)

 Note: the accuracy of off-diagonal elements will be linear
 in the convergence threshold THCLR =  1.00D-03


 Perturbation symmetry.     KSYMOP:           1
 Perturbation spin symmetry.TRPLET:           F
 Orbital variables.         KZWOPT:      128384
 Configuration variables.   KZCONF:           0
 Total number of variables. KZVAR :      128384

@ Singlet linear response function in a.u.

@ A operator, symmetry, frequency:   XDIPLEN    1 -0.000000
@ B operator, symmetry, frequency:   XDIPLEN    1  0.000000

@ Value of linear response -<<A;B>>(omega):     361.062943430560

@ Singlet linear response function in a.u.

@ A operator, symmetry, frequency:   YDIPLEN    1 -0.000000
@ B operator, symmetry, frequency:   XDIPLEN    1  0.000000

@ Value of linear response -<<A;B>>(omega):    -303.523279160552

@ Singlet linear response function in a.u.

@ A operator, symmetry, frequency:   ZDIPLEN    1 -0.000000
@ B operator, symmetry, frequency:   XDIPLEN    1  0.000000

@ Value of linear response -<<A;B>>(omega):      -0.000000000000

@ Singlet linear response function in a.u.

@ A operator, symmetry, frequency:   XDIPLEN    1 -0.014900
@ B operator, symmetry, frequency:   XDIPLEN    1  0.014900

@ Value of linear response -<<A;B>>(omega):     362.176921052199

@ Singlet linear response function in a.u.

@ A operator, symmetry, frequency:   YDIPLEN    1 -0.014900
@ B operator, symmetry, frequency:   XDIPLEN    1  0.014900

@ Value of linear response -<<A;B>>(omega):    -311.930404929606

@ Singlet linear response function in a.u.

@ A operator, symmetry, frequency:   ZDIPLEN    1 -0.014900
@ B operator, symmetry, frequency:   XDIPLEN    1  0.014900

@ Value of linear response -<<A;B>>(omega):      -0.000000000000

@ Singlet linear response function in a.u.

@ A operator, symmetry, frequency:   XDIPLEN    1 -0.000000
@ B operator, symmetry, frequency:   YDIPLEN    1  0.000000

@ Value of linear response -<<A;B>>(omega):    -303.563254486250

@ Singlet linear response function in a.u.

@ A operator, symmetry, frequency:   YDIPLEN    1 -0.000000
@ B operator, symmetry, frequency:   YDIPLEN    1  0.000000

@ Value of linear response -<<A;B>>(omega):    3425.076257287226

@ Singlet linear response function in a.u.

@ A operator, symmetry, frequency:   ZDIPLEN    1 -0.000000
@ B operator, symmetry, frequency:   YDIPLEN    1  0.000000

@ Value of linear response -<<A;B>>(omega):       0.000000000000

@ Singlet linear response function in a.u.

@ A operator, symmetry, frequency:   XDIPLEN    1 -0.014900
@ B operator, symmetry, frequency:   YDIPLEN    1  0.014900

@ Value of linear response -<<A;B>>(omega):    -311.970507772885

@ Singlet linear response function in a.u.

@ A operator, symmetry, frequency:   YDIPLEN    1 -0.014900
@ B operator, symmetry, frequency:   YDIPLEN    1  0.014900

@ Value of linear response -<<A;B>>(omega):    3511.451812137631

@ Singlet linear response function in a.u.

@ A operator, symmetry, frequency:   ZDIPLEN    1 -0.014900
@ B operator, symmetry, frequency:   YDIPLEN    1  0.014900

@ Value of linear response -<<A;B>>(omega):       0.000000000000

@ Singlet linear response function in a.u.

@ A operator, symmetry, frequency:   XDIPLEN    1 -0.000000
@ B operator, symmetry, frequency:   ZDIPLEN    1  0.000000

@ Value of linear response -<<A;B>>(omega):      -0.000000000000

@ Singlet linear response function in a.u.

@ A operator, symmetry, frequency:   YDIPLEN    1 -0.000000
@ B operator, symmetry, frequency:   ZDIPLEN    1  0.000000

@ Value of linear response -<<A;B>>(omega):       0.000000000000

@ Singlet linear response function in a.u.

@ A operator, symmetry, frequency:   ZDIPLEN    1 -0.000000
@ B operator, symmetry, frequency:   ZDIPLEN    1  0.000000

@ Value of linear response -<<A;B>>(omega):     245.026715020289

@ Singlet linear response function in a.u.

@ A operator, symmetry, frequency:   XDIPLEN    1 -0.014900
@ B operator, symmetry, frequency:   ZDIPLEN    1  0.014900

@ Value of linear response -<<A;B>>(omega):      -0.000000000000

@ Singlet linear response function in a.u.

@ A operator, symmetry, frequency:   YDIPLEN    1 -0.014900
@ B operator, symmetry, frequency:   ZDIPLEN    1  0.014900

@ Value of linear response -<<A;B>>(omega):       0.000000000000

@ Singlet linear response function in a.u.

@ A operator, symmetry, frequency:   ZDIPLEN    1 -0.014900
@ B operator, symmetry, frequency:   ZDIPLEN    1  0.014900

@ Value of linear response -<<A;B>>(omega):     245.216092173413


  Results from quadratic response calculation
 --------------------------------------------

@ B-freq = 0.000000  C-freq = 0.000000     beta(X;X,X) =     76.44795437
@ B-freq = 0.000000  C-freq = 0.000000     beta(Y;X,X) =   -861.69875455
@ B-freq = 0.000000  C-freq = 0.000000     beta(Z;X,X) =      0.00000000
@ B-freq = 0.014900  C-freq = 0.000000     beta(X;X,X) =     80.54138936
@ B-freq = 0.014900  C-freq = 0.000000     beta(Y;X,X) =   -887.92201072
@ B-freq = 0.014900  C-freq = 0.000000     beta(Z;X,X) =      0.00000000
@ B-freq = 0.000000  C-freq = 0.000000     beta(X;Y,X) = beta(Y,X,X)
@ B-freq = 0.000000  C-freq = 0.000000     beta(X;Y,X) =   -861.69913372
@ B-freq = 0.000000  C-freq = 0.000000     beta(Y;Y,X) =   1747.72719766
@ B-freq = 0.000000  C-freq = 0.000000     beta(Z;Y,X) =     -0.00000000
@ B-freq = 0.014900  C-freq = 0.000000     beta(X;Y,X) =   -887.92240498
@ B-freq = 0.014900  C-freq = 0.000000     beta(Y;Y,X) =   1831.22413466
@ B-freq = 0.014900  C-freq = 0.000000     beta(Z;Y,X) =     -0.00000000
@ B-freq = 0.000000  C-freq = 0.000000     beta(X;Z,X) = beta(Z,X,X)
@ B-freq = 0.000000  C-freq = 0.000000     beta(Y;Z,X) = beta(Z,Y,X)
@ B-freq = 0.000000  C-freq = 0.000000     beta(X;Z,X) =      0.00000000
@ B-freq = 0.000000  C-freq = 0.000000     beta(Y;Z,X) =     -0.00000000
@ B-freq = 0.000000  C-freq = 0.000000     beta(Z;Z,X) =     -3.70624914
@ B-freq = 0.014900  C-freq = 0.000000     beta(X;Z,X) =      0.00000000
@ B-freq = 0.014900  C-freq = 0.000000     beta(Y;Z,X) =     -0.00000000
@ B-freq = 0.014900  C-freq = 0.000000     beta(Z;Z,X) =     -3.66329310
@ B-freq = 0.000000  C-freq = 0.014900     beta(X;X,X) = beta(X,X,X)
@ B-freq = 0.000000  C-freq = 0.014900     beta(Y;X,X) = beta(Y,X,X)
@ B-freq = 0.000000  C-freq = 0.014900     beta(Z;X,X) = beta(Z,X,X)
@ B-freq = 0.014900  C-freq = 0.014900     beta(X;X,X) =     89.55130174
@ B-freq = 0.014900  C-freq = 0.014900     beta(Y;X,X) =   -968.20977005
@ B-freq = 0.014900  C-freq = 0.014900     beta(Z;X,X) =      0.00000000
@ B-freq = 0.000000  C-freq = 0.014900     beta(X;Y,X) =   -866.77639038
@ B-freq = 0.000000  C-freq = 0.014900     beta(Y;Y,X) =   1394.59505847
@ B-freq = 0.000000  C-freq = 0.014900     beta(Z;Y,X) =     -0.00000000
@ B-freq = 0.014900  C-freq = 0.014900     beta(X;Y,X) =   -897.01253473
@ B-freq = 0.014900  C-freq = 0.014900     beta(Y;Y,X) =   1527.71322442
@ B-freq = 0.014900  C-freq = 0.014900     beta(Z;Y,X) =     -0.00000000
@ B-freq = 0.000000  C-freq = 0.014900     beta(X;Z,X) =      0.00000000
@ B-freq = 0.000000  C-freq = 0.014900     beta(Y;Z,X) =     -0.00000000
@ B-freq = 0.000000  C-freq = 0.014900     beta(Z;Z,X) =     -3.70229683
@ B-freq = 0.014900  C-freq = 0.014900     beta(X;Z,X) =      0.00000000
@ B-freq = 0.014900  C-freq = 0.014900     beta(Y;Z,X) =     -0.00000000
@ B-freq = 0.014900  C-freq = 0.014900     beta(Z;Z,X) =     -3.61220279
@ B-freq = 0.000000  C-freq = 0.000000     beta(X;X,Y) = beta(Y,X,X)
@ B-freq = 0.000000  C-freq = 0.000000     beta(Y;X,Y) = beta(Y,Y,X)
@ B-freq = 0.000000  C-freq = 0.000000     beta(Z;X,Y) = beta(Z,Y,X)
@ B-freq = 0.014900  C-freq = 0.000000     beta(X;X,Y) = beta(X,Y,X)
@ B-freq = 0.014900  C-freq = 0.000000     beta(Y;X,Y) = beta(Y,Y,X)
@ B-freq = 0.014900  C-freq = 0.000000     beta(Z;X,Y) = beta(Z,Y,X)
@ B-freq = 0.000000  C-freq = 0.000000     beta(X;Y,Y) = beta(Y,Y,X)
@ B-freq = 0.000000  C-freq = 0.000000     beta(X;Y,Y) =   1747.72950116
@ B-freq = 0.000000  C-freq = 0.000000     beta(Y;Y,Y) = 152125.34642487
@ B-freq = 0.000000  C-freq = 0.000000     beta(Z;Y,Y) =      0.00000000
@ B-freq = 0.014900  C-freq = 0.000000     beta(X;Y,Y) =   1394.59745382
@ B-freq = 0.014900  C-freq = 0.000000     beta(Y;Y,Y) = 161091.21179087
@ B-freq = 0.014900  C-freq = 0.000000     beta(Z;Y,Y) =      0.00000000
@ B-freq = 0.000000  C-freq = 0.000000     beta(X;Z,Y) = beta(Z,Y,X)
@ B-freq = 0.000000  C-freq = 0.000000     beta(Y;Z,Y) = beta(Z,Y,Y)
@ B-freq = 0.000000  C-freq = 0.000000     beta(X;Z,Y) =     -0.00000000
@ B-freq = 0.000000  C-freq = 0.000000     beta(Y;Z,Y) =      0.00000000
@ B-freq = 0.000000  C-freq = 0.000000     beta(Z;Z,Y) =    -29.37833759
@ B-freq = 0.014900  C-freq = 0.000000     beta(X;Z,Y) =     -0.00000000
@ B-freq = 0.014900  C-freq = 0.000000     beta(Y;Z,Y) =      0.00000000
@ B-freq = 0.014900  C-freq = 0.000000     beta(Z;Z,Y) =    -29.88234349
@ B-freq = 0.000000  C-freq = 0.014900     beta(X;X,Y) = beta(X,Y,X)
@ B-freq = 0.000000  C-freq = 0.014900     beta(Y;X,Y) = beta(Y,Y,X)
@ B-freq = 0.000000  C-freq = 0.014900     beta(Z;X,Y) = beta(Z,Y,X)
@ B-freq = 0.014900  C-freq = 0.014900     beta(X;X,Y) = beta(X,Y,X)
@ B-freq = 0.014900  C-freq = 0.014900     beta(Y;X,Y) = beta(Y,Y,X)
@ B-freq = 0.014900  C-freq = 0.014900     beta(Z;X,Y) = beta(Z,Y,X)
@ B-freq = 0.000000  C-freq = 0.014900     beta(X;Y,Y) = beta(X,Y,Y)
@ B-freq = 0.000000  C-freq = 0.014900     beta(Y;Y,Y) = beta(Y,Y,Y)
@ B-freq = 0.000000  C-freq = 0.014900     beta(Z;Y,Y) = beta(Z,Y,Y)
@ B-freq = 0.014900  C-freq = 0.014900     beta(X;Y,Y) =     42.00740883
@ B-freq = 0.014900  C-freq = 0.014900     beta(Y;Y,Y) = 181560.94890496
@ B-freq = 0.014900  C-freq = 0.014900     beta(Z;Y,Y) =      0.00000000
@ B-freq = 0.000000  C-freq = 0.014900     beta(X;Z,Y) =     -0.00000000
@ B-freq = 0.000000  C-freq = 0.014900     beta(Y;Z,Y) =      0.00000000
@ B-freq = 0.000000  C-freq = 0.014900     beta(Z;Z,Y) =    -29.34468332
@ B-freq = 0.014900  C-freq = 0.014900     beta(X;Z,Y) =     -0.00000000
@ B-freq = 0.014900  C-freq = 0.014900     beta(Y;Z,Y) =      0.00000000
@ B-freq = 0.014900  C-freq = 0.014900     beta(Z;Z,Y) =    -30.38898728
@ B-freq = 0.000000  C-freq = 0.000000     beta(X;X,Z) = beta(Z,X,X)
@ B-freq = 0.000000  C-freq = 0.000000     beta(Y;X,Z) = beta(Z,Y,X)
@ B-freq = 0.000000  C-freq = 0.000000     beta(Z;X,Z) = beta(Z,Z,X)
@ B-freq = 0.014900  C-freq = 0.000000     beta(X;X,Z) = beta(X,Z,X)
@ B-freq = 0.014900  C-freq = 0.000000     beta(Y;X,Z) = beta(Y,Z,X)
@ B-freq = 0.014900  C-freq = 0.000000     beta(Z;X,Z) = beta(Z,Z,X)
@ B-freq = 0.000000  C-freq = 0.000000     beta(X;Y,Z) = beta(Z,Y,X)
@ B-freq = 0.000000  C-freq = 0.000000     beta(Y;Y,Z) = beta(Z,Y,Y)
@ B-freq = 0.000000  C-freq = 0.000000     beta(Z;Y,Z) = beta(Z,Z,Y)
@ B-freq = 0.014900  C-freq = 0.000000     beta(X;Y,Z) = beta(X,Z,Y)
@ B-freq = 0.014900  C-freq = 0.000000     beta(Y;Y,Z) = beta(Y,Z,Y)
@ B-freq = 0.014900  C-freq = 0.000000     beta(Z;Y,Z) = beta(Z,Z,Y)
@ B-freq = 0.000000  C-freq = 0.000000     beta(X;Z,Z) = beta(Z,Z,X)
@ B-freq = 0.000000  C-freq = 0.000000     beta(Y;Z,Z) = beta(Z,Z,Y)
@ B-freq = 0.000000  C-freq = 0.000000     beta(X;Z,Z) =     -3.70628188
@ B-freq = 0.000000  C-freq = 0.000000     beta(Y;Z,Z) =    -29.37802499
@ B-freq = 0.000000  C-freq = 0.000000     beta(Z;Z,Z) =      0.00000000
@ B-freq = 0.014900  C-freq = 0.000000     beta(X;Z,Z) =     -3.70233072
@ B-freq = 0.014900  C-freq = 0.000000     beta(Y;Z,Z) =    -29.34435992
@ B-freq = 0.014900  C-freq = 0.000000     beta(Z;Z,Z) =      0.00000000
@ B-freq = 0.000000  C-freq = 0.014900     beta(X;X,Z) = beta(X,Z,X)
@ B-freq = 0.000000  C-freq = 0.014900     beta(Y;X,Z) = beta(Y,Z,X)
@ B-freq = 0.000000  C-freq = 0.014900     beta(Z;X,Z) = beta(Z,Z,X)
@ B-freq = 0.014900  C-freq = 0.014900     beta(X;X,Z) = beta(X,Z,X)
@ B-freq = 0.014900  C-freq = 0.014900     beta(Y;X,Z) = beta(Y,Z,X)
@ B-freq = 0.014900  C-freq = 0.014900     beta(Z;X,Z) = beta(Z,Z,X)
@ B-freq = 0.000000  C-freq = 0.014900     beta(X;Y,Z) = beta(X,Z,Y)
@ B-freq = 0.000000  C-freq = 0.014900     beta(Y;Y,Z) = beta(Y,Z,Y)
@ B-freq = 0.000000  C-freq = 0.014900     beta(Z;Y,Z) = beta(Z,Z,Y)
@ B-freq = 0.014900  C-freq = 0.014900     beta(X;Y,Z) = beta(X,Z,Y)
@ B-freq = 0.014900  C-freq = 0.014900     beta(Y;Y,Z) = beta(Y,Z,Y)
@ B-freq = 0.014900  C-freq = 0.014900     beta(Z;Y,Z) = beta(Z,Z,Y)
@ B-freq = 0.000000  C-freq = 0.014900     beta(X;Z,Z) = beta(X,Z,Z)
@ B-freq = 0.000000  C-freq = 0.014900     beta(Y;Z,Z) = beta(Y,Z,Z)
@ B-freq = 0.000000  C-freq = 0.014900     beta(Z;Z,Z) = beta(Z,Z,Z)
@ B-freq = 0.014900  C-freq = 0.014900     beta(X;Z,Z) =     -3.74575688
@ B-freq = 0.014900  C-freq = 0.014900     beta(Y;Z,Z) =    -28.59215553
@ B-freq = 0.014900  C-freq = 0.014900     beta(Z;Z,Z) =      0.00000000

  Total CPU  time used in RESPONSE: 23 minutes  5 seconds
  Total wall time used in RESPONSE: 23 minutes  6 seconds


                   .-------------------------------------------.
                   | End of Dynamic Property Section (RESPONS) |
                   `-------------------------------------------'

  Total CPU  time used in DALTON: 31 minutes  1 second 
  Total wall time used in DALTON: 31 minutes  2 seconds

 
     Date and time (Linux)  : Tue May 27 14:51:22 2025
     Host name              : xm059                                   
