

     ************************************************************************
     *************** Dalton - An Electronic Structure Program ***************
     ************************************************************************

    This is output from DALTON release Dalton2020.0 (2020)
         ( Web site: http://daltonprogram.org )

   ----------------------------------------------------------------------------

    NOTE:
     
    Dalton is an experimental code for the evaluation of molecular
    properties using (MC)SCF, DFT, CI, and CC wave functions.
    The authors accept no responsibility for the performance of
    the code or for the correctness of the results.
     
    The code (in whole or part) is provided under a licence and
    is not to be reproduced for further distribution without
    the written permission of the authors or their representatives.
     
    See the home page "http://daltonprogram.org" for further information.
     
    If results obtained with this code are published,
    the appropriate citations would be both of:
     
       K. Aidas, C. Angeli, K. L. Bak, V. Bakken, R. Bast,
       L. Boman, O. Christiansen, R. Cimiraglia, S. Coriani,
       P. Dahle, E. K. Dalskov, U. Ekstroem,
       T. Enevoldsen, J. J. Eriksen, P. Ettenhuber, B. Fernandez,
       L. Ferrighi, H. Fliegl, L. Frediani, K. Hald, A. Halkier,
       C. Haettig, H. Heiberg, T. Helgaker, A. C. Hennum,
       H. Hettema, E. Hjertenaes, S. Hoest, I.-M. Hoeyvik,
       M. F. Iozzi, B. Jansik, H. J. Aa. Jensen, D. Jonsson,
       P. Joergensen, J. Kauczor, S. Kirpekar,
       T. Kjaergaard, W. Klopper, S. Knecht, R. Kobayashi, H. Koch,
       J. Kongsted, A. Krapp, K. Kristensen, A. Ligabue,
       O. B. Lutnaes, J. I. Melo, K. V. Mikkelsen, R. H. Myhre,
       C. Neiss, C. B. Nielsen, P. Norman, J. Olsen,
       J. M. H. Olsen, A. Osted, M. J. Packer, F. Pawlowski,
       T. B. Pedersen, P. F. Provasi, S. Reine, Z. Rinkevicius,
       T. A. Ruden, K. Ruud, V. Rybkin, P. Salek, C. C. M. Samson,
       A. Sanchez de Meras, T. Saue, S. P. A. Sauer,
       B. Schimmelpfennig, K. Sneskov, A. H. Steindal,
       K. O. Sylvester-Hvid, P. R. Taylor, A. M. Teale,
       E. I. Tellgren, D. P. Tew, A. J. Thorvaldsen, L. Thoegersen,
       O. Vahtras, M. A. Watson, D. J. D. Wilson, M. Ziolkowski
       and H. Agren,
       "The Dalton quantum chemistry program system",
       WIREs Comput. Mol. Sci. 2014, 4:269–284 (doi: 10.1002/wcms.1172)
     
    and
     
       Dalton, a molecular electronic structure program,
       Release Dalton2020.0 (2020), see http://daltonprogram.org
   ----------------------------------------------------------------------------

    Authors in alphabetical order (Major contribution(s) in parenthesis):

  Kestutis Aidas,           Vilnius University,           Lithuania   (QM/MM)
  Celestino Angeli,         University of Ferrara,        Italy       (NEVPT2)
  Keld L. Bak,              UNI-C,                        Denmark     (AOSOPPA, non-adiabatic coupling, magnetic properties)
  Vebjoern Bakken,          University of Oslo,           Norway      (DALTON; geometry optimizer, symmetry detection)
  Radovan Bast,             UiT The Arctic U. of Norway,  Norway      (DALTON installation and execution frameworks)
  Pablo Baudin,             University of Valencia,       Spain       (Cholesky excitation energies)
  Linus Boman,              NTNU,                         Norway      (Cholesky decomposition and subsystems)
  Bruno N. Cabral Tenorio,  Technical Univ. of Denmark,   Denmark     (Lanczos-based CC methods)
  Ove Christiansen,         Aarhus University,            Denmark     (CC module)
  Renzo Cimiraglia,         University of Ferrara,        Italy       (NEVPT2)
  Sonia Coriani,            Technical Univ. of Denmark,   Denmark     (CC and RESPONS modules)
  Janusz Cukras,            University of Warsaw,         Poland      (MChD in RESPONS)
  Paal Dahle,               University of Oslo,           Norway      (Parallelization)
  Erik K. Dalskov,          UNI-C,                        Denmark     (SOPPA)
  Thomas Enevoldsen,        Univ. of Southern Denmark,    Denmark     (SOPPA)
  Janus J. Eriksen,         Aarhus University,            Denmark     (Polarizable embedding, TDA)
  Rasmus Faber,             Technical Univ. of Denmark,   Denmark     (Vib.avg. NMR w. SOPPA, parallel AO-SOPPA, CVS-CC and EOMCC)
  Tobias Fahleson,          KTH Stockholm,                Sweden      (Damped cubic response)
  Berta Fernandez,          U. of Santiago de Compostela, Spain       (Doublet spin, ESR in RESPONS)
  Lara Ferrighi,            Aarhus University,            Denmark     (PCM Cubic response)
  Heike Fliegl,             University of Oslo,           Norway      (CCSD(R12))
  Luca Frediani,            UiT The Arctic U. of Norway,  Norway      (PCM)
  Emmanuel Fromager,        Univ. Strasbourg,             France      (MC-srDFT)
  Bin Gao,                  UiT The Arctic U. of Norway,  Norway      (Gen1Int library)
  Andre S. P. Gomes,        CNRS/Universite de Lille,     France      (Frozen density embedding)
  Christof Haettig,         Ruhr-University Bochum,       Germany     (CC module)
  Kasper Hald,              Aarhus University,            Denmark     (CC module)
  Asger Halkier,            Aarhus University,            Denmark     (CC module)
  Frederik Beyer Hansen,    University of Copenhagen,     Denmark     (Parallel AO-SOPPA)
  Erik D. Hedegaard,        Univ. of Southern Denmark,    Denmark     (Polarizable embedding, QM/MM, and MC-srDFT)
  Hanne Heiberg,            University of Oslo,           Norway      (Geometry analysis, selected one-electron integrals)
  Trygve Helgaker,          University of Oslo,           Norway      (DALTON; ABACUS, ERI, DFT modules, London, and much more)
  Alf Christian Hennum,     University of Oslo,           Norway      (Parity violation)
  Hinne Hettema,            University of Auckland,       New Zealand (Quadratic response in RESPONS; SIRIUS supersymmetry)
  Eirik Hjertenaes,         NTNU,                         Norway      (Cholesky decomposition)
  Pi A. B. Haase,           University of Copenhagen,     Denmark     (Triplet AO-SOPPA)
  Maria Francesca Iozzi,    University of Oslo,           Norway      (RPA)
  Christoph Jacob           TU Braunschweig               Germany     (Frozen density embedding)
  Brano Jansik              Technical Univ. of Ostrava    Czech Rep.  (DFT cubic response)
  Hans Joergen Aa. Jensen,  Univ. of Southern Denmark,    Denmark     (DALTON; SIRIUS, RESPONS, ABACUS, MC-srDFT, and much more)
  Dan Jonsson,              UiT The Arctic U. of Norway,  Norway      (Cubic response in RESPONS module)
  Poul Joergensen,          Aarhus University,            Denmark     (RESPONS, ABACUS, and CC modules)
  Maciej Kaminski,          University of Warsaw,         Poland      (CPPh in RESPONS)
  Joanna Kauczor,           Linkoeping University,        Sweden      (Complex polarization propagator (CPP) module)
  Sheela Kirpekar,          Univ. of Southern Denmark,    Denmark     (Mass-velocity & Darwin integrals)
  Erik Kjellgren,           Univ. of Southern Denmark,    Denmark     (MC-srDFT)
  Wim Klopper,              KIT Karlsruhe,                Germany     (R12 code in CC, SIRIUS, and ABACUS modules)
  Stefan Knecht,            ETH Zurich,                   Switzerland (Parallel CI and MCSCF, MC-srDFT)
  Rika Kobayashi,           Australian National Univ.,    Australia   (DIIS in CC, London in MCSCF)
  Henrik Koch,              NTNU,                         Norway      (CC module, Cholesky decomposition)
  Jacob Kongsted,           Univ. of Southern Denmark,    Denmark     (Polarizable embedding, polarizable density embedding, QM/MM)
  Andrea Ligabue,           University of Modena,         Italy       (CTOCD, AOSOPPA)
  Nanna H. List             Univ. of Southern Denmark,    Denmark     (Polarizable embedding)
  Ola B. Lutnaes,           University of Oslo,           Norway      (DFT Hessian)
  Juan I. Melo,             University of Buenos Aires,   Argentina   (LRESC, Relativistic Effects on NMR Shieldings)
  Kurt V. Mikkelsen,        University of Copenhagen,     Denmark     (MC-SCRF and QM/MM)
  Rolf H. Myhre,            NTNU,                         Norway      (Subsystems and CC3)
  Christian Neiss,          Univ. Erlangen-Nuernberg,     Germany     (CCSD(R12))
  Christian B. Nielsen,     University of Copenhagen,     Denmark     (QM/MM)
  Patrick Norman,           KTH Stockholm,                Sweden      (Cubic response and complex frequency response in RESPONS)
  Jeppe Olsen,              Aarhus University,            Denmark     (SIRIUS CI/density modules)
  Jogvan Magnus H. Olsen,   Aarhus University,            Denmark     (Polarizable embedding and polarizable density embedding)
  Anders Osted,             Copenhagen University,        Denmark     (QM/MM)
  Martin J. Packer,         University of Sheffield,      UK          (SOPPA)
  Filip Pawlowski,          Kazimierz Wielki University,  Poland      (CC3)
  Morten N. Pedersen,       Univ. of Southern Denmark,    Denmark     (Polarizable embedding)
  Thomas B. Pedersen,       University of Oslo,           Norway      (Cholesky decomposition)
  Patricio F. Provasi,      University of Northeastern,   Argentina   (Analysis of coupling constants in localized orbitals)
  Peter Reinholdt,          Univ. of Southern Denmark,    Denmark     (Polarizable embedding and polarizable density embedding)
  Zilvinas Rinkevicius,     KTH Stockholm,                Sweden      (open-shell DFT, ESR)
  Elias Rudberg,            KTH Stockholm,                Sweden      (DFT grid and basis info)
  Torgeir A. Ruden,         University of Oslo,           Norway      (Numerical derivatives in ABACUS)
  Kenneth Ruud,             UiT The Arctic U. of Norway,  Norway      (DALTON; ABACUS magnetic properties and much more)
  Pawel Salek,              KTH Stockholm,                Sweden      (DALTON; DFT code)
  Claire C. M. Samson       University of Karlsruhe       Germany     (Boys localization, r12 integrals in ERI)
  Alfredo Sanchez de Meras, University of Valencia,       Spain       (CC module, Cholesky decomposition)
  Trond Saue,               Paul Sabatier University,     France      (direct Fock matrix construction)
  Stephan P. A. Sauer,      University of Copenhagen,     Denmark     (SOPPA(CCSD), SOPPA prop., AOSOPPA, vibrational g-factors)
  Bernd Schimmelpfennig,    Forschungszentrum Karlsruhe,  Germany     (AMFI module)
  Anna K. Schnack-Petersen, University of Copenhagen,     Denmark     (RPA(D) and HRPA(D) properties in AOSOPPA)
  Kristian Sneskov,         Aarhus University,            Denmark     (Polarizable embedding, QM/MM)
  Arnfinn H. Steindal,      UiT The Arctic U. of Norway,  Norway      (parallel QM/MM, polarizable embedding)
  Casper Steinmann,         Aalborg University,           Denmark     (QFIT, polarizable embedding)
  K. O. Sylvester-Hvid,     University of Copenhagen,     Denmark     (MC-SCRF)
  Peter R. Taylor,          VLSCI/Univ. of Melbourne,     Australia   (Symmetry handling ABACUS, integral transformation)
  Andrew M. Teale,          University of Nottingham,     England     (DFT-AC, DFT-D)
  David P. Tew,             University of Bristol,        England     (CCSD(R12))
  Julien Toulouse,          Sorbonne Univ.,               France      (MC-srDFT)
  Olav Vahtras,             KTH Stockholm,                Sweden      (Triplet response, spin-orbit, ESR, TDDFT, open-shell DFT)
  Lucas Visscher,           Vrije Universiteit Amsterdam, Netherlands (Frozen density embedding)
  David J. Wilson,          La Trobe University,          Australia   (DFT Hessian and DFT magnetizabilities)
  Hans Agren,               KTH Stockholm,                Sweden      (SIRIUS module, RESPONS, MC-SCRF solvation)
 --------------------------------------------------------------------------------

     Date and time (Linux)  : Fri May 30 12:51:40 2025
     Host name              : xm052                                   

 * Work memory size             :   131072000 = 1000.00 megabytes.

 * Directories for basis set searches:
   1) /gpfs/projects/rjh/adrian/summer2025/beta_projects/raw_data/NLO/dalton/hf/n16/dipole
   2) /gpfs/projects/rjh/adrian/dalton/build/basis


Compilation information
-----------------------

 Who compiled             | ahurtado
 Host                     | milan2
 System                   | Linux-5.14.0-427.42.1.el9_4.x86_64
 CMake generator          | Unix Makefiles
 Processor                | x86_64
 64-bit integers          | OFF
 MPI                      | ON
 Fortran compiler         | /gpfs/software/openmpi/milan/gcc13.2/4.1.6/bin/mpi
                          | f90
 Fortran compiler version | GNU Fortran (GCC) 13.2.0
 C compiler               | /gpfs/software/openmpi/milan/gcc13.2/4.1.6/bin/mpi
                          | cc
 C compiler version       | gcc (GCC) 13.2.0
 C++ compiler             | /gpfs/software/openmpi/milan/gcc13.2/4.1.6/bin/mpi
                          | cxx
 C++ compiler version     | unknown
 BLAS                     | /gpfs/software/intel/oneAPI/2024_2/mkl/2024.2/lib/
                          | intel64/libmkl_gf_lp64.so;/gpfs/software/intel/one
                          | API/2024_2/mkl/2024.2/lib/intel64/libmkl_sequentia
                          | l.so;/gpfs/software/intel/oneAPI/2024_2/mkl/2024.2
                          | /lib/intel64/libmkl_core.so;/usr/lib64/libpthread.
                          | a;/usr/lib64/libm.so
 LAPACK                   | /gpfs/software/intel/oneAPI/2024_2/mkl/2024.2/lib/
                          | intel64/libmkl_lapack95_lp64.a;/gpfs/software/inte
                          | l/oneAPI/2024_2/mkl/2024.2/lib/intel64/libmkl_gf_l
                          | p64.so
 Static linking           | OFF
 Last Git revision        | 66052b3af5ea7225e31178bf9a8b031913c72190
 Git branch               | (HEAD detached at Dalton2020.0)
 Configuration time       | 2025-04-10 16:02:31.569498

 * MPI parallel run using 576 processes.


   Content of the .dal input file
 ----------------------------------

**DALTON INPUT
.RUN RESPONSE
.DIRECT
**WAVE FUNCTIONS
.HF
**PROPERTIES
**RESPONSE
*QUADRA
.DIPLEN
.FREQUENCIES
2
0.0 0.0149
**END OF DALTON INPUT


   Content of the .mol file
 ----------------------------

BASIS
d-aug-cc-pVDZ
blah
blah
Atomtype=4 Angstrom Charge=0 Nosymmetry
Charge=6 Atoms=32
C_a 0.5001809983290585 1.7797879992716736 0.0
C_b -0.16220999745438547 2.987646000095475 0.0
C_c 0.49582800246940334 4.2645759993647525 0.0
C_d -0.16915799897858463 5.470992997726178 0.0
C_e 0.48522700069982333 6.749906998777245 0.0
C_f -0.18341200099354546 7.954179998627237 0.0
C_g 0.46579499967845656 9.236000997642712 0.0
C_h -0.20809300072767378 10.43704700077723 0.0
C_i 0.43356600142335505 11.723210999494853 0.0
C_j -0.24802199836574126 12.9192910025971 0.0
C_k 0.38215300104666733 14.212150998067658 0.0
C_l -0.31143800261395815 15.400095002099524 0.0
C_m 0.29939099765736177 16.704016997358508 0.0
C_n -0.41625300058199055 17.876390999153745 0.0
C_o 0.1561239991475072 19.199333999369884 0.0
C_p -0.6175079998522471 20.329543002265773 0.0
C_q 0.4749929992011593 -8.156224001118602 0.0
C_r -0.179651000971239 -6.945319998060691 0.0
C_s 0.4879030022282326 -5.672542997416067 0.0
C_t -0.16915799897858463 -4.462354997583053 0.0
C_u 0.49582800246940334 -3.1886870001017367 0.0
C_v -0.16298399850157194 -1.9791220005988446 0.0
C_w 0.49990900124277404 -0.7046010012045602 0.0
C_x -0.16054399942557732 0.5042449999304224 0.0
C_y 0.41873600059812416 -13.123278000928199 0.0
C_z -0.22421999902094053 -11.909230997453463 0.0
C_{ 0.4541339977464114 -10.639791999027798 0.0
C_| -0.19645800256376092 -9.427784000014126 0.0
C_} 0.23745900210343157 -18.066174997569448 0.0
C_~ -0.3694410002565105 -16.85711999789511 0.0
C_ 0.35629500006879467 -15.605667997448725 0.0
C_ -0.2729060010614268 -14.388457001097214 0.0
Charge=7 Atoms=2
N_a -0.16239899838694838 21.620682002320013 0.0
N_b -0.5410550006299404 -19.300058002407035 0.0
Charge=8 Atoms=2
O_a 0.11924999975613079 -20.345945998225037 0.0
O_b -1.7717919993241475 -19.22771300057939 0.0
Charge=1 Atoms=34
H_a 1.6001719980811484 1.7843189997614541 0.0
H_b -1.2623579987931093 2.9820030024905093 0.0
H_c 1.5958120012069963 4.27142500241638 0.0
H_d -1.2693339990835248 5.462585001569512 0.0
H_e 1.5851840008161278 6.759962000792628 0.0
H_f -1.2836180001545587 7.94185400086163 0.0
H_g 1.5656890012478308 9.250623000073519 0.0
H_h -1.3083209977853345 10.419023997580537 0.0
H_i 1.5333279997375278 11.744488998173237 0.0
H_j -1.3482389991209645 12.892666001586539 0.0
H_k 1.4816050020590574 14.243579001946058 0.0
H_l -1.4115270006936922 15.359170997844007 0.0
H_m 1.397944000673633 16.753083001553975 0.0
H_n -1.515291999948541 17.80723799955263 0.0
H_o 1.2505279988270643 19.295309002073548 0.0
H_p -1.7105979995999896 20.234098002289226 0.0
H_q 0.8283599982620515 21.82069100093003 0.0
H_r -0.8038760006199114 22.39826699741765 0.0
H_s 1.574827997511544 -8.159852997885706 0.0
H_t -1.279722001734038 -6.943320999396752 0.0
H_u 1.5878200018391826 -5.67336700041789 0.0
H_v -1.2692440019153064 -4.46256900213882 0.0
H_w 1.5957889978736484 -3.1876010014629115 0.0
H_x -1.2630859984653722 -1.9810369976723614 0.0
H_y 1.599892999980367 -0.7018710024335741 0.0
H_z -1.260666002287941 0.5006460022193905 0.0
H_{ 1.5180350006035932 -13.14106400152755 0.0
H_| -1.3242000024705929 -11.897244001192556 0.0
H_} 1.5538019983126525 -10.648318001702442 0.0
H_~ -1.2965080002830687 -9.422253997618956 0.0
H_ 1.3141369992957848 -18.246511002564585 0.0
H_ -1.4659360013498532 -16.83678699858777 0.0
H_ 1.4542269977530282 -15.640808999684648 0.0
H_ -1.372507002501025 -14.365893001253232 0.0


       *******************************************************************
       *********** Output from DALTON general input processing ***********
       *******************************************************************

 --------------------------------------------------------------------------------
   Overall default print level:    0
   Print level for DALTON.STAT:    1

    Parallel calculation using MPI
    AO-direct calculation (in sections where implemented)
    HERMIT 1- and 2-electron integral sections will be executed
    "Old" integral transformation used (limited to max 255 basis functions)
    Wave function sections will be executed (SIRIUS module)
    Dynamic molecular response properties section will be executed (RESPONSE module)
 --------------------------------------------------------------------------------


   ****************************************************************************
   *************** Output of molecule and basis set information ***************
   ****************************************************************************


    The two title cards from your ".mol" input:
    ------------------------------------------------------------------------
 1: blah                                                                    
 2: blah                                                                    
    ------------------------------------------------------------------------

  Coordinates are entered in Angstrom and converted to atomic units.
          - Conversion factor : 1 bohr = 0.52917721 A

  Atomic type no.    1
  --------------------
  Nuclear charge:   6.00000
  Number of symmetry independent centers:   32
  Number of basis sets to read;    2
  Basis set file used for this atomic type with Z =   6 :
     "/gpfs/projects/rjh/adrian/dalton/build/basis/aug-cc-pVDZ"

  Atomic type no.    2
  --------------------
  Nuclear charge:   7.00000
  Number of symmetry independent centers:    2
  Number of basis sets to read;    2
  Basis set file used for this atomic type with Z =   7 :
     "/gpfs/projects/rjh/adrian/dalton/build/basis/aug-cc-pVDZ"

  Atomic type no.    3
  --------------------
  Nuclear charge:   8.00000
  Number of symmetry independent centers:    2
  Number of basis sets to read;    2
  Basis set file used for this atomic type with Z =   8 :
     "/gpfs/projects/rjh/adrian/dalton/build/basis/aug-cc-pVDZ"

  Atomic type no.    4
  --------------------
  Nuclear charge:   1.00000
  Number of symmetry independent centers:   34
  Number of basis sets to read;    2
  Basis set file used for this atomic type with Z =   1 :
     "/gpfs/projects/rjh/adrian/dalton/build/basis/aug-cc-pVDZ"


                         SYMGRP: Point group information
                         -------------------------------

@    Point group: C1 


                                 Isotopic Masses
                                 ---------------

                           C_a        12.000000
                           C_b        12.000000
                           C_c        12.000000
                           C_d        12.000000
                           C_e        12.000000
                           C_f        12.000000
                           C_g        12.000000
                           C_h        12.000000
                           C_i        12.000000
                           C_j        12.000000
                           C_k        12.000000
                           C_l        12.000000
                           C_m        12.000000
                           C_n        12.000000
                           C_o        12.000000
                           C_p        12.000000
                           C_q        12.000000
                           C_r        12.000000
                           C_s        12.000000
                           C_t        12.000000
                           C_u        12.000000
                           C_v        12.000000
                           C_w        12.000000
                           C_x        12.000000
                           C_y        12.000000
                           C_z        12.000000
                           C_{        12.000000
                           C_|        12.000000
                           C_}        12.000000
                           C_~        12.000000
                           C_        12.000000
                           C_       12.000000
                           N_a        14.003074
                           N_b        14.003074
                           O_a        15.994915
                           O_b        15.994915
                           H_a         1.007825
                           H_b         1.007825
                           H_c         1.007825
                           H_d         1.007825
                           H_e         1.007825
                           H_f         1.007825
                           H_g         1.007825
                           H_h         1.007825
                           H_i         1.007825
                           H_j         1.007825
                           H_k         1.007825
                           H_l         1.007825
                           H_m         1.007825
                           H_n         1.007825
                           H_o         1.007825
                           H_p         1.007825
                           H_q         1.007825
                           H_r         1.007825
                           H_s         1.007825
                           H_t         1.007825
                           H_u         1.007825
                           H_v         1.007825
                           H_w         1.007825
                           H_x         1.007825
                           H_y         1.007825
                           H_z         1.007825
                           H_{         1.007825
                           H_|         1.007825
                           H_}         1.007825
                           H_~         1.007825
                           H_         1.007825
                           H_        1.007825
                           H_        1.007825
                           H_        1.007825

                       Total mass:   478.262028 amu
                       Natural abundance:  68.986 %

 Center-of-mass coordinates (a.u.):   -0.010137   -0.315204    0.000000
 Center-of-mass coordinates (Angs):   -0.005364   -0.166799    0.000000


  Atoms and basis sets
  --------------------

  Number of atom types :    4
  Total number of atoms:   70

  Basis set used is "d-aug-cc-pVDZ" from the basis set library.

  label    atoms   charge   prim   cont     basis
  ----------------------------------------------------------------------
  C_         32    6.0000    44    32      [11s6p3d|5s4p3d]                                   
  N_          2    7.0000    44    32      [11s6p3d|5s4p3d]                                   
  O_          2    8.0000    44    32      [11s6p3d|5s4p3d]                                   
  H_         34    1.0000    15    13      [6s3p|4s3p]                                        
  ----------------------------------------------------------------------
  total:     70  256.0000  2094  1594
  ----------------------------------------------------------------------
  Spherical harmonic basis used.

  Threshold for neglecting AO integrals:  1.00D-12

  Max    interatomic separation is   42.7542 Angstrom (   80.7937 Bohr)
  between atoms   54 and   35, "H_r   " and "O_a   ".

  Min HX interatomic separation is    1.0080 Angstrom (    1.9049 Bohr)

  Min YX interatomic separation is    1.2329 Angstrom (    2.3298 Bohr)


  Bond distances (Angstrom):
  --------------------------

                  atom 1     atom 2       distance
                  ------     ------       --------
  bond distance:  C_b        C_a          1.377564
  bond distance:  C_c        C_b          1.436511
  bond distance:  C_d        C_c          1.377552
  bond distance:  C_e        C_d          1.436607
  bond distance:  C_f        C_e          1.377444
  bond distance:  C_g        C_f          1.436849
  bond distance:  C_h        C_g          1.377184
  bond distance:  C_i        C_h          1.437339
  bond distance:  C_j        C_i          1.376652
  bond distance:  C_k        C_j          1.438265
  bond distance:  C_l        C_k          1.375601
  bond distance:  C_m        C_l          1.439904
  bond distance:  C_n        C_m          1.373538
  bond distance:  C_o        C_n          1.441455
  bond distance:  C_p        C_o          1.369627
  bond distance:  C_r        C_q          1.376535
  bond distance:  C_s        C_r          1.437216
  bond distance:  C_t        C_s          1.377056
  bond distance:  C_u        C_t          1.436815
  bond distance:  C_v        C_u          1.377346
  bond distance:  C_w        C_v          1.436604
  bond distance:  C_x        C_a          1.436512
  bond distance:  C_x        C_w          1.377500
  bond distance:  C_z        C_y          1.373791
  bond distance:  C_{        C_z          1.439319
  bond distance:  C_|        C_q          1.437954
  bond distance:  C_|        C_{          1.375585
  bond distance:  C_~        C_}          1.352827
  bond distance:  C_        C_~          1.446660
  bond distance:  C_       C_y          1.441890
  bond distance:  C_       C_          1.370218
  bond distance:  N_a        C_p          1.369001
  bond distance:  N_b        C_}          1.458956
  bond distance:  O_a        N_b          1.236885
  bond distance:  O_b        N_b          1.232861
  bond distance:  H_a        C_a          1.100000
  bond distance:  H_b        C_b          1.100162
  bond distance:  H_c        C_c          1.100005
  bond distance:  H_d        C_d          1.100208
  bond distance:  H_e        C_e          1.100003
  bond distance:  H_f        C_f          1.100275
  bond distance:  H_g        C_g          1.099991
  bond distance:  H_h        C_h          1.100376
  bond distance:  H_i        C_i          1.099968
  bond distance:  H_j        C_j          1.100539
  bond distance:  H_k        C_k          1.099901
  bond distance:  H_l        C_l          1.100850
  bond distance:  H_m        C_m          1.099648
  bond distance:  H_n        C_n          1.101212
  bond distance:  H_o        C_o          1.098604
  bond distance:  H_p        C_p          1.097249
  bond distance:  H_q        N_a          1.010746
  bond distance:  H_r        N_a          1.008033
  bond distance:  H_s        C_q          1.099841
  bond distance:  H_t        C_r          1.100073
  bond distance:  H_u        C_s          1.099917
  bond distance:  H_v        C_t          1.100086
  bond distance:  H_w        C_u          1.099962
  bond distance:  H_x        C_v          1.100104
  bond distance:  H_y        C_w          1.099987
  bond distance:  H_z        C_x          1.100128
  bond distance:  H_{        C_y          1.099443
  bond distance:  H_|        C_z          1.100045
  bond distance:  H_}        C_{          1.099701
  bond distance:  H_~        C_|          1.100064
  bond distance:  H_        C_}          1.091676
  bond distance:  H_       C_~          1.096684
  bond distance:  H_       C_          1.098494
  bond distance:  H_       C_         1.099832


  Bond angles (degrees):
  ----------------------

                  atom 1     atom 2     atom 3         angle
                  ------     ------     ------         -----
  bond angle:     C_b        C_a        C_x          123.876
  bond angle:     C_b        C_a        H_a          118.504
  bond angle:     C_x        C_a        H_a          117.620
  bond angle:     C_a        C_b        C_c          123.996
  bond angle:     C_a        C_b        H_b          118.447
  bond angle:     C_c        C_b        H_b          117.557
  bond angle:     C_b        C_c        C_d          123.873
  bond angle:     C_b        C_c        H_c          117.620
  bond angle:     C_d        C_c        H_c          118.507
  bond angle:     C_c        C_d        C_e          124.039
  bond angle:     C_c        C_d        H_d          118.426
  bond angle:     C_e        C_d        H_d          117.535
  bond angle:     C_d        C_e        C_f          123.862
  bond angle:     C_d        C_e        H_e          117.621
  bond angle:     C_f        C_e        H_e          118.516
  bond angle:     C_e        C_f        C_g          124.099
  bond angle:     C_e        C_f        H_f          118.398
  bond angle:     C_g        C_f        H_f          117.503
  bond angle:     C_f        C_g        C_h          123.843
  bond angle:     C_f        C_g        H_g          117.623
  bond angle:     C_h        C_g        H_g          118.534
  bond angle:     C_g        C_h        C_i          124.190
  bond angle:     C_g        C_h        H_h          118.358
  bond angle:     C_i        C_h        H_h          117.453
  bond angle:     C_h        C_i        C_j          123.809
  bond angle:     C_h        C_i        H_i          117.623
  bond angle:     C_j        C_i        H_i          118.568
  bond angle:     C_i        C_j        C_k          124.337
  bond angle:     C_i        C_j        H_j          118.290
  bond angle:     C_k        C_j        H_j          117.372
  bond angle:     C_j        C_k        C_l          123.735
  bond angle:     C_j        C_k        H_k          117.623
  bond angle:     C_l        C_k        H_k          118.642
  bond angle:     C_k        C_l        C_m          124.620
  bond angle:     C_k        C_l        H_l          118.148
  bond angle:     C_m        C_l        H_l          117.231
  bond angle:     C_l        C_m        C_n          123.498
  bond angle:     C_l        C_m        H_m          117.658
  bond angle:     C_n        C_m        H_m          118.843
  bond angle:     C_m        C_n        C_o          125.203
  bond angle:     C_m        C_n        H_n          117.800
  bond angle:     C_o        C_n        H_n          116.996
  bond angle:     C_n        C_o        C_p          122.212
  bond angle:     C_n        C_o        H_o          118.408
  bond angle:     C_p        C_o        H_o          119.380
  bond angle:     C_o        C_p        N_a          126.191
  bond angle:     C_o        C_p        H_p          119.402
  bond angle:     N_a        C_p        H_p          114.407
  bond angle:     C_r        C_q        C_|          123.767
  bond angle:     C_r        C_q        H_s          118.586
  bond angle:     C_|        C_q        H_s          117.647
  bond angle:     C_q        C_r        C_s          123.927
  bond angle:     C_q        C_r        H_t          118.501
  bond angle:     C_s        C_r        H_t          117.572
  bond angle:     C_r        C_s        C_t          123.824
  bond angle:     C_r        C_s        H_u          117.633
  bond angle:     C_t        C_s        H_u          118.542
  bond angle:     C_s        C_t        C_u          123.931
  bond angle:     C_s        C_t        H_v          118.488
  bond angle:     C_u        C_t        H_v          117.580
  bond angle:     C_t        C_u        C_v          123.855
  bond angle:     C_t        C_u        H_w          117.626
  bond angle:     C_v        C_u        H_w          118.519
  bond angle:     C_u        C_v        C_w          123.945
  bond angle:     C_u        C_v        H_x          118.476
  bond angle:     C_w        C_v        H_x          117.579
  bond angle:     C_v        C_w        C_x          123.871
  bond angle:     C_v        C_w        H_y          117.622
  bond angle:     C_x        C_w        H_y          118.508
  bond angle:     C_a        C_x        C_w          123.966
  bond angle:     C_a        C_x        H_z          117.571
  bond angle:     C_w        C_x        H_z          118.463
  bond angle:     C_z        C_y        C_         123.430
  bond angle:     C_z        C_y        H_{          118.833
  bond angle:     C_       C_y        H_{          117.737
  bond angle:     C_y        C_z        C_{          123.976
  bond angle:     C_y        C_z        H_|          118.530
  bond angle:     C_{        C_z        H_|          117.494
  bond angle:     C_z        C_{        C_|          123.655
  bond angle:     C_z        C_{        H_}          117.675
  bond angle:     C_|        C_{        H_}          118.671
  bond angle:     C_q        C_|        C_{          123.937
  bond angle:     C_q        C_|        H_~          117.548
  bond angle:     C_{        C_|        H_~          118.514
  bond angle:     C_~        C_}        N_b          121.095
  bond angle:     C_~        C_}        H_          126.163
  bond angle:     N_b        C_}        H_          112.741
  bond angle:     C_}        C_~        C_          123.235
  bond angle:     C_}        C_~        H_         117.717
  bond angle:     C_        C_~        H_         119.048
  bond angle:     C_~        C_        C_         122.555
  bond angle:     C_~        C_        H_         118.277
  bond angle:     C_       C_        H_         119.169
  bond angle:     C_y        C_       C_          124.000
  bond angle:     C_y        C_       H_         117.489
  bond angle:     C_        C_       H_         118.511
  bond angle:     C_p        N_a        H_q          120.830
  bond angle:     C_p        N_a        H_r          121.062
  bond angle:     H_q        N_a        H_r          118.108
  bond angle:     C_}        N_b        O_a          115.485
  bond angle:     C_}        N_b        O_b          118.886
  bond angle:     O_a        N_b        O_b          125.630




 Principal moments of inertia (u*A**2) and principal axes
 --------------------------------------------------------

   IA     171.432298          0.004694    0.999989    0.000000
   IB   80509.102816          0.999989   -0.004694    0.000000
   IC   80680.535114          0.000000    0.000000    1.000000


 Rotational constants
 --------------------

@    The molecule is planar.

               A                   B                   C

           2947.9801              6.2773              6.2640 MHz
            0.098334            0.000209            0.000209 cm-1


@  Nuclear repulsion energy : 2402.763166227178 Hartree


                     .---------------------------------------.
                     | Starting in Integral Section (HERMIT) |
                     `---------------------------------------'



 ***************************************************************************************
 ****************** Output from **INTEGRALS input processing (HERMIT) ******************
 ***************************************************************************************


 - Using defaults, no **INTEGRALS input found

 Default print level:        1

 Calculation of one-electron Hamiltonian integrals.

 Center of mass  (bohr):     -0.010137254706     -0.315203559370      0.000000000000
 Operator center (bohr):      0.000000000000      0.000000000000      0.000000000000
 Gauge origin    (bohr):      0.000000000000      0.000000000000      0.000000000000
 Dipole origin   (bohr):      0.000000000000      0.000000000000      0.000000000000


     ************************************************************************
     ************************** Output from HERINT **************************
     ************************************************************************



                      Nuclear contribution to dipole moments
                      --------------------------------------

                 au               Debye          C m (/(10**-30)

      x      0.00000573         0.00001456         0.00004858
      y     -0.00003204        -0.00008144        -0.00027165
      z      0.00000000         0.00000000         0.00000000


  Time used in ONEDRV     is       6.20 seconds
  Time used in HUCKEL     is       1.21 seconds
  Time used in OVERLAP    is       0.65 seconds
  Time used in POPOVLP    is       1.27 seconds
  Time used in R2         is       0.77 seconds
  Time used in R4         is       0.89 seconds
  Time used in DIPLEN     is       0.87 seconds
  Time used in QUADRUP    is       1.61 seconds
  Time used in KINENE     is       1.09 seconds
  Time used in GABGEN     is       4.89 seconds
  Total CPU  time used in HERMIT:  19.45 seconds
  Total wall time used in HERMIT:  19.59 seconds


                        .----------------------------------.
                        | End of Integral Section (HERMIT) |
                        `----------------------------------'



                   .--------------------------------------------.
                   | Starting in Wave Function Section (SIRIUS) |
                   `--------------------------------------------'



@ Primary orbitals are deleted during canonical orthonormalization
@   because of detected numerical linear dependence or too large coefficients.
@ Eigenvalue threshold for num. lin. dep. =  1.00D-06

@ 134 MO components are deleted in symmetry    1
 Overlap eigenvalues of the deleted orbitals:
  9.70D-07  9.14D-07  8.85D-07  8.76D-07  8.53D-07
  8.05D-07  7.88D-07  7.75D-07  7.57D-07  7.56D-07
  7.24D-07  7.04D-07  6.49D-07  5.71D-07  5.47D-07
  5.33D-07  4.74D-07  4.68D-07  4.60D-07  4.27D-07
  4.10D-07  4.05D-07  3.83D-07  3.55D-07  3.51D-07
  3.28D-07  3.02D-07  2.97D-07  2.93D-07  2.67D-07
  2.62D-07  2.45D-07  2.35D-07  2.32D-07  2.27D-07
  2.06D-07  1.95D-07  1.87D-07  1.83D-07  1.74D-07
  1.62D-07  1.54D-07  1.49D-07  1.47D-07  1.39D-07
  1.34D-07  1.33D-07  1.27D-07  1.22D-07  1.11D-07
  1.06D-07  9.85D-08  9.38D-08  9.27D-08  8.72D-08
  8.43D-08  8.09D-08  7.20D-08  6.82D-08  6.64D-08
  6.00D-08  5.79D-08  5.18D-08  4.63D-08  4.29D-08
  3.82D-08  3.59D-08  3.39D-08  3.07D-08  2.95D-08
  2.85D-08  2.63D-08  2.45D-08  2.41D-08  2.31D-08
  2.19D-08  2.05D-08  1.95D-08  1.74D-08  1.60D-08
  1.58D-08  1.49D-08  1.45D-08  1.35D-08  1.25D-08
  1.15D-08  1.15D-08  1.10D-08  1.03D-08  1.01D-08
  9.92D-09  9.76D-09  8.68D-09  8.58D-09  7.50D-09
  7.05D-09  6.65D-09  6.37D-09  5.90D-09  5.55D-09
  5.30D-09  5.09D-09  4.90D-09  4.63D-09  4.18D-09
  4.05D-09  3.88D-09  3.56D-09  3.08D-09  2.89D-09
  2.80D-09  2.48D-09  2.39D-09  2.19D-09  1.74D-09
  1.66D-09  1.52D-09  1.43D-09  1.15D-09  1.09D-09
  8.81D-10  8.64D-10  8.10D-10  6.18D-10  5.82D-10
  4.40D-10  1.56D-10  1.35D-10  7.82D-11  6.02D-11
  3.96D-11  3.69D-11  3.76D-12  2.89D-12

 Max MO coeff. of last deleted MO & limit:  1.63D+02  1.00D+03

WARNING: Orbitals have been deleted because of numerical
   linear dependence although not requested in input.

 *** Output from Huckel module :

     Using EWMO model:          T
     Using EHT  model:          F
     Number of Huckel orbitals each symmetry:  214

 EWMO - Energy Weighted Maximum Overlap - is a Huckel type method,
        which normally is better than Extended Huckel Theory.
 Reference: Linderberg and Ohrn, Propagators in Quantum Chemistry (Wiley, 1973)

 Huckel EWMO eigenvalues for symmetry :  1
          -20.684753     -20.683498     -15.677080     -15.674960     -11.359424
          -11.359399     -11.359261     -11.359183     -11.359010     -11.358942
          -11.358790     -11.358587     -11.357954     -11.357130     -11.356157
          -11.355081     -11.353950     -11.352816     -11.351738     -11.350820
          -11.348685     -11.348084     -11.347426     -11.346827     -11.346322
          -11.345921     -11.345627     -11.345499     -11.345452     -11.345438
          -11.345358     -11.345333     -11.345247     -11.345243     -11.345177
          -11.345175      -1.964048      -1.793045      -1.791226      -1.787118
           -1.779025      -1.765339      -1.744534      -1.715463      -1.677581
           -1.631034      -1.576629      -1.515853      -1.455458      -1.437679
           -1.377057      -1.305768      -1.233778      -1.213401      -1.199536
           -1.176826      -1.162937      -1.145617      -1.112268      -1.090186
           -1.070489      -1.026119      -1.019550      -0.979364      -0.957800
           -0.931272      -0.901949      -0.882679      -0.853983      -0.852028
           -0.838778      -0.815452      -0.812535      -0.785729      -0.774884
           -0.757769      -0.746552      -0.742390      -0.735337      -0.708623
           -0.694397      -0.683578      -0.678668      -0.667160      -0.651888
           -0.646464      -0.636361      -0.620132      -0.612951      -0.602228
           -0.595175      -0.586070      -0.578106      -0.567260      -0.561696
           -0.544494      -0.544027      -0.536067      -0.529235      -0.516693
           -0.511219      -0.508962      -0.499183      -0.495389      -0.495025
           -0.492473      -0.491242      -0.486876      -0.486183      -0.481864
           -0.481128      -0.479171      -0.477178      -0.476892      -0.474213
           -0.473958      -0.470529      -0.448815      -0.445649      -0.421477
           -0.420523      -0.400134      -0.394580      -0.382597      -0.371179
           -0.369523      -0.361425      -0.350631      -0.336082      -0.309376
           -0.292443      -0.276750      -0.262668      -0.250214      -0.239331
           -0.229930      -0.229151      -0.221908      -0.215151      -0.209542
           -0.204963      -0.201302      -0.200874      -0.198457      -0.196340
           -0.194879      -0.194024      -0.190599      -0.166744      -0.142715
           -0.139033      -0.135856      -0.133867      -0.132308      -0.131663
           -0.131463      -0.130926      -0.130713      -0.129966      -0.129887
           -0.129818      -0.129482      -0.129337      -0.129163      -0.128652
           -0.128479      -0.127859      -0.127739      -0.127183      -0.127078
           -0.126644      -0.126453      -0.126131      -0.125635      -0.125578
           -0.125330      -0.124589      -0.124496      -0.124006      -0.123728
           -0.123590      -0.123197      -0.113035      -0.112625      -0.110390
           -0.109190      -0.107000      -0.105289      -0.103313      -0.101710
           -0.099733      -0.098104      -0.096210      -0.095214      -0.093231
           -0.092666      -0.090991      -0.090294      -0.089229      -0.088337
           -0.087731      -0.086867      -0.086464      -0.085709      -0.085501
           -0.084948      -0.084620      -0.083660      -0.082720      -0.081800
           -0.080927      -0.080166      -0.079601      -0.079329

 **********************************************************************
 *SIRIUS* a direct, restricted step, second order MCSCF program       *
 **********************************************************************

 
     Date and time (Linux)  : Fri May 30 12:55:37 2025
     Host name              : xm052                                   

 Title lines from ".mol" input file:
     blah                                                                    
     blah                                                                    

 Print level on unit LUPRI =   2 is   0
 Print level on unit LUW4  =   2 is   5

@    Restricted, closed shell Hartree-Fock calculation.

@    Time-dependent Hartree-Fock calculation (random phase approximation).
 Fock matrices are calculated directly and in parallel without use of integrals on disk.

 Initial molecular orbitals are obtained according to
 ".MOSTART EWMO  " input option

     Wave function specification
     ============================
@    Wave function type        --- HF ---
@    Number of closed shell electrons         256
@    Number of electrons in active shells       0
@    Total charge of the molecule               0

@    Spin multiplicity and 2 M_S                1         0
@    Total number of symmetries                 1 (point group: C1 )
@    Reference state symmetry                   1 (irrep name : A  )

     Orbital specifications
     ======================
@    Abelian symmetry species          All |    1
@                                          |  A  
                                       --- |  ---
@    Occupied SCF orbitals             128 |  128
@    Secondary orbitals               1332 | 1332
@    Total number of orbitals         1460 | 1460
@    Number of basis functions        1594 | 1594

     Optimization information
     ========================
@    Number of configurations                 1
@    Number of orbital rotations         170496
     ------------------------------------------
@    Total number of variables           170497

     Maximum number of Fock   iterations      0
     Maximum number of DIIS   iterations     60
     Maximum number of QC-SCF iterations     60
     Threshold for SCF convergence     1.00D-05

    INFORMATION: Switched to "new" integral transformation (from 1988 ;-) )
    because more than 255 basis functions.


 ***********************************************
 ***** DIIS acceleration of SCF iterations *****
 ***********************************************

 C1-DIIS algorithm; max error vectors =    8

 Iter      Total energy        Error norm    Delta(E)  DIIS dim.
 -----------------------------------------------------------------------------
   1  Screening settings (-IFTHRS, JTDIIS, DIFDEN, times)  -10    1    T  4.04D+01  4.06D+01
@  1    -1484.72541477        8.42609D+00   -1.48D+03    1
      Virial theorem: -V/T =      2.013576
@    MULPOP   C_a     0.38; C_b     0.47; C_c     0.44; C_d     0.45; C_e     0.35; C_f     0.48; C_g     0.41; C_h     0.40; C_i     0.30; C_j     0.53; 
@             C_k     0.45; C_l     0.63; C_m     0.35; C_n     0.74; C_o     0.11; C_p     1.01; C_q     0.43; C_r     0.47; C_s     0.44; C_t     0.44; 
@             C_u     0.45; C_v     0.50; C_w     0.41; C_x     0.43; C_y     0.52; C_z     0.59; C_{     0.35; C_|     0.43; C_}     0.93; C_~     0.36; 
@    MULPOP    dipole moment & components:     42.5864;        1.9205     42.5431      0.0000
   1  Level shift: doubly occupied orbital energies shifted by -2.00D-01
 -----------------------------------------------------------------------------
   2  Screening settings (-IFTHRS, JTDIIS, DIFDEN, times)  -10    2    T  3.61D+01  3.63D+01
@  2    -1489.38270286        3.00884D+00   -4.66D+00    2
      Virial theorem: -V/T =      2.000713
@    MULPOP   C_a     0.64; C_b     0.84; C_c     0.82; C_d     0.57; C_e     0.53; C_f     0.82; C_g     0.87; C_h     0.71; C_i     0.52; C_j     0.85; 
@             C_k     0.97; C_l     1.03; C_m     0.35; C_n     0.63; C_o     0.96; C_p    -0.29; C_q     0.81; C_r     0.81; C_s     0.70; C_t     0.55; 
@             C_u     0.82; C_v     0.75; C_w     0.77; C_x     0.60; C_y     0.93; C_z     0.99; C_{     0.73; C_|     0.57; C_}     0.26; C_~     0.11; 
@    MULPOP    dipole moment & components:     13.8624;        3.2723     13.4707      0.0000
   2  Level shift: doubly occupied orbital energies shifted by -1.00D-01
 -----------------------------------------------------------------------------
   3  Screening settings (-IFTHRS, JTDIIS, DIFDEN, times)  -10    3    T  3.55D+01  3.57D+01
@  3    -1489.92280324        1.11080D+00   -5.40D-01    3
      Virial theorem: -V/T =      2.001439
@    MULPOP   C_a     0.63; C_b     0.83; C_c     0.83; C_d     0.54; C_e     0.54; C_f     0.79; C_g     0.82; C_h     0.66; C_i     0.52; C_j     0.84; 
@             C_k     0.99; C_l     0.99; C_m     0.06; C_n     0.38; C_o     0.77; C_p    -0.25; C_q     0.80; C_r     0.78; C_s     0.66; C_t     0.55; 
@             C_u     0.83; C_v     0.73; C_w     0.78; C_x     0.58; C_y     0.94; C_z     1.01; C_{     0.76; C_|     0.54; C_}     0.52; C_~    -0.07; 
@    MULPOP    dipole moment & components:     11.2162;        3.9395     10.5016      0.0000
   3  Level shift: doubly occupied orbital energies shifted by -5.00D-02
 -----------------------------------------------------------------------------
   4  Screening settings (-IFTHRS, JTDIIS, DIFDEN, times)  -10    4    T  4.09D+01  4.11D+01
@  4    -8086.45889161        9.47607D+03   -6.60D+03    4
      Virial theorem: -V/T =      6.448361
@    MULPOP   C_a     1.45; C_b     1.73; C_c     1.74; C_d     1.31; C_e     1.18; C_f     1.34; C_g     0.94; C_h     0.58; C_i     0.82; C_j     1.28; 
@             C_k     1.18; C_l     1.26; C_m    -1.20; C_n    -2.21; C_o    -1.02; C_p    -1.29; C_q     0.73; C_r     0.66; C_s     1.49; C_t     1.37; 
@             C_u     1.56; C_v     1.53; C_w     1.81; C_x     1.41; C_y     1.74; C_z     1.16; C_{     0.81; C_|     1.23; C_}    -1.18; C_~    -1.55; 
@    MULPOP    dipole moment & components:      9.7876;        9.6562     -1.5987      0.0000
   4  Level shift: doubly occupied orbital energies shifted by -5.00D-02
 -----------------------------------------------------------------------------
   5  Screening settings (-IFTHRS, JTDIIS, DIFDEN, times)  -10    5    F  3.99D+01  4.01D+01
@  5    -8041.76117879        9.41005D+03    4.47D+01    5
      Virial theorem: -V/T =      6.418236
@    MULPOP   C_a     1.46; C_b     1.73; C_c     1.74; C_d     1.31; C_e     1.19; C_f     1.35; C_g     0.93; C_h     0.57; C_i     0.83; C_j     1.29; 
@             C_k     1.18; C_l     1.26; C_m    -1.20; C_n    -2.21; C_o    -1.03; C_p    -1.29; C_q     0.73; C_r     0.67; C_s     1.48; C_t     1.37; 
@             C_u     1.57; C_v     1.54; C_w     1.81; C_x     1.41; C_y     1.74; C_z     1.16; C_{     0.80; C_|     1.23; C_}    -1.19; C_~    -1.55; 
@    MULPOP    dipole moment & components:      9.7806;        9.6515     -1.5842      0.0000
   5  Level shift: doubly occupied orbital energies shifted by -5.00D-02
 -----------------------------------------------------------------------------
   6  Screening settings (-IFTHRS, JTDIIS, DIFDEN, times)  -10    6    F  3.99D+01  4.00D+01
@  6    -8041.76116542        9.41005D+03    1.34D-05    6
      Virial theorem: -V/T =      6.418236
@    MULPOP   C_a     1.46; C_b     1.73; C_c     1.74; C_d     1.31; C_e     1.19; C_f     1.35; C_g     0.93; C_h     0.57; C_i     0.83; C_j     1.29; 
@             C_k     1.18; C_l     1.26; C_m    -1.20; C_n    -2.21; C_o    -1.03; C_p    -1.29; C_q     0.73; C_r     0.67; C_s     1.48; C_t     1.37; 
@             C_u     1.57; C_v     1.54; C_w     1.81; C_x     1.41; C_y     1.74; C_z     1.16; C_{     0.80; C_|     1.23; C_}    -1.19; C_~    -1.55; 
@    MULPOP    dipole moment & components:      9.7806;        9.6515     -1.5842      0.0000
   6  Level shift: doubly occupied orbital energies shifted by -5.00D-02
 -----------------------------------------------------------------------------
   7  Screening settings (-IFTHRS, JTDIIS, DIFDEN, times)  -10    7    F  3.98D+01  4.00D+01
@  7    -8041.76120554        9.41005D+03   -4.01D-05    7
      Virial theorem: -V/T =      6.418236
@    MULPOP   C_a     1.46; C_b     1.73; C_c     1.74; C_d     1.31; C_e     1.19; C_f     1.35; C_g     0.93; C_h     0.57; C_i     0.83; C_j     1.29; 
@             C_k     1.18; C_l     1.26; C_m    -1.20; C_n    -2.21; C_o    -1.03; C_p    -1.29; C_q     0.73; C_r     0.67; C_s     1.48; C_t     1.37; 
@             C_u     1.57; C_v     1.54; C_w     1.81; C_x     1.41; C_y     1.74; C_z     1.16; C_{     0.80; C_|     1.23; C_}    -1.19; C_~    -1.55; 
@    MULPOP    dipole moment & components:      9.7806;        9.6515     -1.5842      0.0000
   7  Level shift: doubly occupied orbital energies shifted by -5.00D-02
 -----------------------------------------------------------------------------
   8  Screening settings (-IFTHRS, JTDIIS, DIFDEN, times)  -10    8    F  3.98D+01  4.01D+01
@  8    -8041.76119301        9.41005D+03    1.25D-05    8
      Virial theorem: -V/T =      6.418236
@    MULPOP   C_a     1.46; C_b     1.73; C_c     1.74; C_d     1.31; C_e     1.19; C_f     1.35; C_g     0.93; C_h     0.57; C_i     0.83; C_j     1.29; 
@             C_k     1.18; C_l     1.26; C_m    -1.20; C_n    -2.21; C_o    -1.03; C_p    -1.29; C_q     0.73; C_r     0.67; C_s     1.48; C_t     1.37; 
@             C_u     1.57; C_v     1.54; C_w     1.81; C_x     1.41; C_y     1.74; C_z     1.16; C_{     0.80; C_|     1.23; C_}    -1.19; C_~    -1.55; 
@    MULPOP    dipole moment & components:      9.7806;        9.6515     -1.5842      0.0000
   8  Level shift: doubly occupied orbital energies shifted by -5.00D-02
 -----------------------------------------------------------------------------
   9  Screening settings (-IFTHRS, JTDIIS, DIFDEN, times)  -10    9    F  3.98D+01  4.00D+01
@  9    -8041.76117173        9.41005D+03    2.13D-05    8
      Virial theorem: -V/T =      6.418236
@    MULPOP   C_a     1.46; C_b     1.73; C_c     1.74; C_d     1.31; C_e     1.19; C_f     1.35; C_g     0.93; C_h     0.57; C_i     0.83; C_j     1.29; 
@             C_k     1.18; C_l     1.26; C_m    -1.20; C_n    -2.21; C_o    -1.03; C_p    -1.29; C_q     0.73; C_r     0.67; C_s     1.48; C_t     1.37; 
@             C_u     1.57; C_v     1.54; C_w     1.81; C_x     1.41; C_y     1.74; C_z     1.16; C_{     0.80; C_|     1.23; C_}    -1.19; C_~    -1.55; 
@    MULPOP    dipole moment & components:      9.7806;        9.6515     -1.5842      0.0000
   9  Level shift: doubly occupied orbital energies shifted by -5.00D-02
 -----------------------------------------------------------------------------
  10  Screening settings (-IFTHRS, JTDIIS, DIFDEN, times)  -10   10    F  3.99D+01  4.00D+01
@ 10    -7977.57065575        9.51735D+03    6.42D+01    8
      Virial theorem: -V/T =      6.374997
@    MULPOP   C_a     1.63; C_b     1.76; C_c     1.59; C_d     1.13; C_e     1.10; C_f     1.30; C_g     0.90; C_h     0.60; C_i     0.93; C_j     1.46; 
@             C_k     1.31; C_l     1.31; C_m    -1.30; C_n    -2.40; C_o    -1.14; C_p    -1.36; C_q     0.79; C_r     0.63; C_s     1.50; C_t     1.37; 
@             C_u     1.46; C_v     1.41; C_w     1.83; C_x     1.58; C_y     1.86; C_z     1.40; C_{     1.15; C_|     1.46; C_}    -1.31; C_~    -1.65; 
@    MULPOP    dipole moment & components:     13.6859;       10.0020     -9.3415      0.0000
  10  Level shift: doubly occupied orbital energies shifted by -5.00D-02
 -----------------------------------------------------------------------------
  11  Screening settings (-IFTHRS, JTDIIS, DIFDEN, times)  -10   11    F  3.98D+01  4.00D+01
@ 11    -8225.87520508        9.07242D+03   -2.48D+02    8
      Virial theorem: -V/T =      6.543595
@    MULPOP   C_a     1.44; C_b     1.63; C_c     1.54; C_d     1.16; C_e     1.19; C_f     1.44; C_g     1.06; C_h     0.65; C_i     0.72; C_j     1.12; 
@             C_k     1.03; C_l     1.18; C_m    -1.03; C_n    -1.92; C_o    -0.87; C_p    -1.15; C_q     0.85; C_r     0.75; C_s     1.44; C_t     1.24; 
@             C_u     1.37; C_v     1.30; C_w     1.58; C_x     1.29; C_y     1.65; C_z     1.13; C_{     0.63; C_|     1.06; C_}    -1.12; C_~    -1.43; 
@    MULPOP    dipole moment & components:     11.7971;        9.3082     -7.2477      0.0000
  11  Level shift: doubly occupied orbital energies shifted by -5.00D-02
 -----------------------------------------------------------------------------
  12  Screening settings (-IFTHRS, JTDIIS, DIFDEN, times)  -10   12    F  4.16D+01  4.18D+01
@ 12    -20837.0745955        2.76933D+04   -1.26D+04    8
      Virial theorem: -V/T =     52.716939
@    MULPOP   C_a     1.02; C_b     0.42; C_c     0.84; C_d     0.37; C_e    -0.11; C_f     0.22; C_g     0.16; C_h    -0.02; C_i     1.51; C_j     0.82; 
@             C_k     0.57; C_l     1.46; C_m    -0.22; C_n     0.95; C_o     1.72; C_p    -0.21; C_q     2.18; C_r    -0.02; C_s    -0.22; C_t     1.27; 
@             C_u     0.89; C_v     0.89; C_w     0.83; C_x     0.72; C_y     1.16; C_z     1.08; C_{     0.47; C_|     1.68; C_}     0.51; C_~    -0.63; 
@    MULPOP    dipole moment & components:    352.9966;      -16.5992   -352.6061      0.0000
  12  Level shift: doubly occupied orbital energies shifted by -5.00D-02
 -----------------------------------------------------------------------------
  13  Screening settings (-IFTHRS, JTDIIS, DIFDEN, times)  -10   13    F  4.17D+01  4.18D+01
@ 13    -61334.9827254        2.76579D+04   -4.05D+04    8
      Virial theorem: -V/T =     44.098102
@    MULPOP   C_a    -0.41; C_b    -1.07; C_c    -1.41; C_d     0.85; C_e    -3.15; C_f    -0.53; C_g     0.02; C_h    -0.93; C_i     1.35; C_j    -2.04; 
@             C_k    -0.84; C_l    -1.88; C_m    -1.63; C_n     0.73; C_o     1.05; C_p     1.35; C_q    -0.67; C_r    -2.60; C_s     0.33; C_t     0.77; 
@             C_u    -1.35; C_v    -0.06; C_w    -0.34; C_x     0.03; C_y    -1.93; C_z     1.17; C_{    -0.22; C_|    -0.93; C_}     1.11; C_~     0.34; 
@    MULPOP    dipole moment & components:    461.9003;      -40.6713   -460.1062      0.0000
  13  Level shift: doubly occupied orbital energies shifted by -5.00D-02
 -----------------------------------------------------------------------------
  14  Screening settings (-IFTHRS, JTDIIS, DIFDEN, times)  -10   14    F  4.17D+01  4.18D+01
@ 14    -62144.6480625        3.15498D+04   -8.10D+02    8
      Virial theorem: -V/T =     44.417702
@    MULPOP   C_a     0.51; C_b    -0.36; C_c    -0.28; C_d    -0.53; C_e    -0.13; C_f    -1.33; C_g    -0.75; C_h     0.08; C_i     0.76; C_j    -1.62; 
@             C_k    -0.80; C_l    -1.01; C_m    -0.17; C_n     0.88; C_o     1.11; C_p    -0.57; C_q     0.21; C_r    -2.08; C_s    -1.26; C_t     0.20; 
@             C_u    -0.98; C_v    -0.92; C_w     1.28; C_x    -1.15; C_y    -1.18; C_z     1.01; C_{    -1.15; C_|    -0.06; C_}     1.38; C_~    -0.20; 
@    MULPOP    dipole moment & components:    368.7707;      -11.9813   -368.5760      0.0000
  14  Level shift: doubly occupied orbital energies shifted by -5.00D-02
 -----------------------------------------------------------------------------
  15  Screening settings (-IFTHRS, JTDIIS, DIFDEN, times)  -10   15    F  4.16D+01  4.18D+01
@ 15    -72867.9981183        2.70706D+04   -1.07D+04    8
      Virial theorem: -V/T =     52.641481
@    MULPOP   C_a     0.56; C_b    -0.17; C_c    -1.07; C_d    -0.43; C_e    -1.66; C_f     0.66; C_g    -1.91; C_h    -0.84; C_i     1.22; C_j    -1.75; 
@             C_k     0.41; C_l    -2.15; C_m    -0.28; C_n    -0.34; C_o     1.89; C_p    -0.38; C_q    -0.16; C_r    -2.05; C_s     0.79; C_t    -0.29; 
@             C_u    -0.19; C_v    -0.96; C_w     2.72; C_x    -2.92; C_y    -1.72; C_z     2.58; C_{    -1.66; C_|    -1.00; C_}     1.98; C_~    -0.58; 
@    MULPOP    dipole moment & components:    559.1374;      -21.9516   -558.7064      0.0000
  15  Level shift: doubly occupied orbital energies shifted by -5.00D-02
 -----------------------------------------------------------------------------
  16  Screening settings (-IFTHRS, JTDIIS, DIFDEN, times)  -10   16    F  4.16D+01  4.18D+01
@ 16    -75366.2459723        2.71938D+04   -2.50D+03    8
      Virial theorem: -V/T =     53.993418
@    MULPOP   C_a     0.01; C_b     0.89; C_c    -1.66; C_d    -0.94; C_e    -1.70; C_f     2.36; C_g    -1.74; C_h    -2.30; C_i     0.84; C_j    -1.61; 
@             C_k     1.71; C_l    -1.65; C_m    -0.72; C_n     0.62; C_o     0.18; C_p     1.13; C_q    -1.68; C_r     0.05; C_s     2.46; C_t    -1.21; 
@             C_u    -0.46; C_v    -0.85; C_w    -1.41; C_x     0.16; C_y     1.37; C_z    -0.47; C_{     0.45; C_|    -0.44; C_}     2.07; C_~    -0.75; 
@    MULPOP    dipole moment & components:    271.9821;      -26.9845   -270.6401      0.0000
  16  Level shift: doubly occupied orbital energies shifted by -5.00D-02
 -----------------------------------------------------------------------------
  17  Screening settings (-IFTHRS, JTDIIS, DIFDEN, times)  -10   17    F  4.17D+01  4.18D+01
@ 17    -78655.4391887        2.74783D+04   -3.29D+03    8
      Virial theorem: -V/T =     55.655142
@    MULPOP   C_a    -1.22; C_b    -1.35; C_c    -1.07; C_d    -1.72; C_e    -0.92; C_f    -1.04; C_g    -1.39; C_h    -0.95; C_i    -0.03; C_j    -0.41; 
@             C_k     0.04; C_l    -0.37; C_m     0.27; C_n     0.33; C_o     0.87; C_p    -0.26; C_q    -0.54; C_r    -0.92; C_s    -1.06; C_t    -0.54; 
@             C_u    -0.71; C_v    -0.88; C_w    -1.19; C_x    -0.40; C_y    -0.50; C_z    -0.90; C_{     0.01; C_|    -0.60; C_}     0.60; C_~     1.36; 
@    MULPOP    dipole moment & components:    203.8807;      -19.9480   -202.9025      0.0000
  17  Level shift: doubly occupied orbital energies shifted by -5.00D-02
 -----------------------------------------------------------------------------
  18  Screening settings (-IFTHRS, JTDIIS, DIFDEN, times)  -10   18    F  4.17D+01  4.18D+01
@ 18    -79839.9104249        2.75131D+04   -1.18D+03    8
      Virial theorem: -V/T =     56.547348
@    MULPOP   C_a    -1.19; C_b    -1.39; C_c    -0.97; C_d    -1.77; C_e    -1.04; C_f    -1.00; C_g    -1.20; C_h    -0.97; C_i     0.16; C_j    -0.67; 
@             C_k    -0.23; C_l    -0.34; C_m     0.13; C_n     0.47; C_o     0.84; C_p    -0.23; C_q    -0.51; C_r    -1.00; C_s    -0.94; C_t    -0.53; 
@             C_u    -0.87; C_v    -0.82; C_w    -1.15; C_x    -0.46; C_y    -0.79; C_z    -0.70; C_{    -0.23; C_|    -0.53; C_}     0.52; C_~     1.17; 
@    MULPOP    dipole moment & components:    208.4515;      -19.3771   -207.5489      0.0000
  18  Level shift: doubly occupied orbital energies shifted by -5.00D-02
 -----------------------------------------------------------------------------
  19  Screening settings (-IFTHRS, JTDIIS, DIFDEN, times)  -10   19    F  4.16D+01  4.18D+01
@ 19    -93835.5409503        2.80279D+04   -1.40D+04    8
      Virial theorem: -V/T =     66.151360
@    MULPOP   C_a    -0.66; C_b    -1.37; C_c    -1.59; C_d    -0.71; C_e    -0.86; C_f    -0.78; C_g     0.35; C_h    -0.68; C_i    -2.55; C_j    -1.38; 
@             C_k    -0.36; C_l    -0.93; C_m     0.03; C_n     0.60; C_o     1.47; C_p    -0.40; C_q    -0.53; C_r    -0.42; C_s    -1.22; C_t    -1.60; 
@             C_u    -1.68; C_v    -1.47; C_w    -1.29; C_x    -0.26; C_y    -0.42; C_z    -0.52; C_{    -0.52; C_|    -0.54; C_}    -0.17; C_~     0.95; 
@    MULPOP    dipole moment & components:    191.6318;      -20.6829   -190.5124      0.0000
  19  Level shift: doubly occupied orbital energies shifted by -5.00D-02
 -----------------------------------------------------------------------------
  20  Screening settings (-IFTHRS, JTDIIS, DIFDEN, times)  -10   20    F  4.16D+01  4.18D+01
@ 20    -129048.287364        1.42444D+04   -3.52D+04    8
      Virial theorem: -V/T =     85.693546
@    MULPOP   C_a    -0.62; C_b     1.31; C_c    -0.65; C_d     0.08; C_e     0.04; C_f     0.34; C_g     0.55; C_h     0.84; C_i     1.53; C_j     0.23; 
@             C_k     0.46; C_l     0.63; C_m     1.34; C_n     1.29; C_o     1.40; C_p     1.90; C_q    -2.27; C_r    -1.46; C_s     0.31; C_t    -0.25; 
@             C_u     1.86; C_v    -0.58; C_w    -0.31; C_x    -0.01; C_y    -3.37; C_z    -1.72; C_{    -1.17; C_|    -1.80; C_}    -7.66; C_~    -4.24; 
@    MULPOP    dipole moment & components:   1268.6474;      -19.3362   1268.5001      0.0000
  20  Level shift: doubly occupied orbital energies shifted by -5.00D-02
 -----------------------------------------------------------------------------
  21  Screening settings (-IFTHRS, JTDIIS, DIFDEN, times)  -10   21    F  4.17D+01  4.18D+01
@ 21    -134968.470323        1.11303D+04   -5.92D+03    8
      Virial theorem: -V/T =     98.061097
@    MULPOP   C_a    -1.41; C_b     1.99; C_c     0.50; C_d    -2.51; C_e    -4.40; C_f    -2.77; C_g    -0.56; C_h    -1.35; C_i    -1.67; C_j    -1.52; 
@             C_k    -3.83; C_l    -3.69; C_m    -8.68; C_n    -1.80; C_o    -1.20; C_p    -3.45; C_q     1.24; C_r     0.55; C_s     0.69; C_t     0.39; 
@             C_u     0.15; C_v    -0.11; C_w     0.58; C_x     0.17; C_y     3.04; C_z     1.21; C_{     1.23; C_|     1.49; C_}     3.23; C_~     3.49; 
@    MULPOP    dipole moment & components:   1410.2003;      -24.0397  -1409.9954      0.0000
  21  Level shift: doubly occupied orbital energies shifted by -5.00D-02
 -----------------------------------------------------------------------------
  22  Screening settings (-IFTHRS, JTDIIS, DIFDEN, times)  -10   22    F  4.17D+01  4.18D+01
@ 22    -138065.437175        2.94630D+03   -3.10D+03    8
      Virial theorem: -V/T =     94.447255
@    MULPOP   C_a    -7.53; C_b    -2.59; C_c    -1.99; C_d    -2.00; C_e     0.23; C_f     0.20; C_g     1.04; C_h     1.36; C_i     1.59; C_j     1.01; 
@             C_k     1.07; C_l     0.60; C_m     1.16; C_n     1.16; C_o     0.90; C_p     0.59; C_q    -0.59; C_r    -2.80; C_s    -4.39; C_t    -5.00; 
@             C_u    -6.50; C_v    -5.62; C_w    -4.83; C_x    -3.35; C_y     1.14; C_z     0.85; C_{     2.50; C_|    -0.21; C_}     0.97; C_~     0.78; 
@    MULPOP    dipole moment & components:     83.4138;      -39.0730    -73.6965      0.0000
  22  Level shift: doubly occupied orbital energies shifted by -2.50D-02
 -----------------------------------------------------------------------------
  23  Screening settings (-IFTHRS, JTDIIS, DIFDEN, times)  -10   23    F  4.16D+01  4.18D+01
@ 23    -138372.484896        3.63106D+03   -3.07D+02    8
      Virial theorem: -V/T =    103.277107
@    MULPOP   C_a     1.41; C_b     0.13; C_c    -0.40; C_d    -0.14; C_e    -0.22; C_f     0.15; C_g     1.00; C_h     1.88; C_i     1.02; C_j     1.12; 
@             C_k     2.02; C_l     1.11; C_m    -1.02; C_n    -1.20; C_o     1.00; C_p     0.29; C_q     1.74; C_r     0.62; C_s     2.64; C_t     2.76; 
@             C_u     2.36; C_v     2.54; C_w     2.66; C_x     2.48; C_y    -0.64; C_z    -0.05; C_{     1.73; C_|     1.45; C_}    -6.08; C_~    -7.72; 
@    MULPOP    dipole moment & components:   1936.1275;       34.5978   1935.8184      0.0000
  23  Level shift: doubly occupied orbital energies shifted by -2.50D-02
 -----------------------------------------------------------------------------
  24  Screening settings (-IFTHRS, JTDIIS, DIFDEN, times)  -10   24    F  4.16D+01  4.18D+01
@ 24    -138970.351993        1.78299D+03   -5.98D+02    8
      Virial theorem: -V/T =    103.194090
@    MULPOP   C_a    -0.56; C_b    -0.19; C_c    -0.53; C_d    -0.37; C_e     0.30; C_f    -4.68; C_g     0.75; C_h    -3.82; C_i    -7.15; C_j    -6.48; 
@             C_k    -5.71; C_l    -6.17; C_m    -5.89; C_n    -4.29; C_o    -4.48; C_p    -5.74; C_q     1.74; C_r     0.51; C_s     0.57; C_t     0.67; 
@             C_u     0.15; C_v     0.35; C_w     0.28; C_x     0.27; C_y     1.18; C_z     1.47; C_{     1.47; C_|     1.59; C_}     2.94; C_~     3.01; 
@    MULPOP    dipole moment & components:   2681.5220;      -18.2174  -2681.4601      0.0000
  24  Level shift: doubly occupied orbital energies shifted by -1.25D-02
 -----------------------------------------------------------------------------
  25  Screening settings (-IFTHRS, JTDIIS, DIFDEN, times)  -10   25    F  4.17D+01  4.18D+01
@ 25    -136850.594861        9.60785D+02    2.12D+03    8
      Virial theorem: -V/T =    136.600900
@    MULPOP   C_a     2.24; C_b     2.67; C_c     2.76; C_d     3.04; C_e     3.36; C_f     3.27; C_g     3.76; C_h     4.23; C_i     4.45; C_j     3.83; 
@             C_k     3.69; C_l     4.09; C_m     4.43; C_n     3.65; C_o     3.38; C_p     3.11; C_q     2.17; C_r     1.07; C_s     3.25; C_t     3.01; 
@             C_u     2.80; C_v     2.80; C_w     3.02; C_x     2.36; C_y     1.10; C_z     1.78; C_{     1.72; C_|     1.86; C_}    -1.56; C_~   -26.87; 
@    MULPOP    dipole moment & components:   4971.7143;       94.3466   4970.8190      0.0000
  25  Level shift: doubly occupied orbital energies shifted by -1.25D-02
 -----------------------------------------------------------------------------
  26  Screening settings (-IFTHRS, JTDIIS, DIFDEN, times)  -10   26    F  4.16D+01  4.18D+01
@ 26    -138566.606982        5.03094D+02   -1.72D+03    8
      Virial theorem: -V/T =    116.722733
@    MULPOP   C_a    -0.02; C_b     0.02; C_c     1.35; C_d     2.30; C_e    -0.91; C_f    -3.79; C_g    -8.60; C_h    -3.44; C_i    -9.46; C_j   -11.74; 
@             C_k    -5.07; C_l   -10.21; C_m    -2.54; C_n    -5.64; C_o    -6.63; C_p    -7.55; C_q     3.93; C_r     0.84; C_s     1.12; C_t     0.90; 
@             C_u     0.60; C_v     0.64; C_w     1.20; C_x     0.23; C_y     3.73; C_z     3.96; C_{     3.98; C_|     4.07; C_}     3.44; C_~     3.32; 
@    MULPOP    dipole moment & components:   3770.7618;      -38.0827  -3770.5695      0.0000
  26  Level shift: doubly occupied orbital energies shifted by -1.25D-02
 -----------------------------------------------------------------------------
  27  Screening settings (-IFTHRS, JTDIIS, DIFDEN, times)  -10   27    F  4.16D+01  4.18D+01
@ 27    -139368.586736        2.44810D+02   -8.02D+02    8
      Virial theorem: -V/T =    107.004939
@    MULPOP   C_a    -6.40; C_b    -1.29; C_c    -0.25; C_d    -0.44; C_e     0.52; C_f     0.35; C_g     3.29; C_h     1.54; C_i     1.86; C_j     3.46; 
@             C_k     3.45; C_l     1.14; C_m     0.92; C_n     1.19; C_o     0.87; C_p     0.87; C_q    -6.15; C_r     0.51; C_s    -6.57; C_t    -8.01; 
@             C_u    -5.90; C_v    -4.96; C_w    -4.87; C_x    -6.82; C_y     2.42; C_z     1.67; C_{    -2.90; C_|    -7.62; C_}     3.10; C_~     3.17; 
@    MULPOP    dipole moment & components:    161.8816;      -51.2698    153.5483      0.0000
 -----------------------------------------------------------------------------
  28  Screening settings (-IFTHRS, JTDIIS, DIFDEN, times)  -10   28    T  4.04D+01  4.06D+01
@ 28    -139479.754341        1.35537D+02   -1.11D+02    8
      Virial theorem: -V/T =    109.733324
@    MULPOP   C_a    -0.55; C_b     0.09; C_c     0.12; C_d    -0.15; C_e     0.51; C_f     0.24; C_g    -2.30; C_h     0.40; C_i    -2.26; C_j    -6.34; 
@             C_k    -5.66; C_l    -3.92; C_m    -1.41; C_n     0.79; C_o    -0.62; C_p    -2.08; C_q     3.80; C_r     2.77; C_s     3.08; C_t     2.80; 
@             C_u     2.50; C_v     2.78; C_w     2.83; C_x     2.73; C_y     1.76; C_z     1.58; C_{     3.75; C_|     3.73; C_}    -8.89; C_~    -5.51; 
@    MULPOP    dipole moment & components:     64.7837;       11.7783     63.7039      0.0000
 -----------------------------------------------------------------------------
  29  Screening settings (-IFTHRS, JTDIIS, DIFDEN, times)  -10   29    T  4.05D+01  4.07D+01
@ 29    -139914.270975        7.40588D+01   -4.35D+02    8
      Virial theorem: -V/T =     94.646005
@    MULPOP   C_a    -2.12; C_b     1.47; C_c     0.81; C_d    -2.69; C_e    -6.54; C_f    -8.68; C_g    -5.77; C_h    -4.35; C_i     1.69; C_j     1.94; 
@             C_k     1.50; C_l     1.02; C_m    -1.70; C_n     0.41; C_o    -1.11; C_p    -6.30; C_q     1.82; C_r     1.55; C_s     0.54; C_t     0.44; 
@             C_u     0.33; C_v     0.37; C_w     0.52; C_x     0.62; C_y   -25.78; C_z     8.94; C_{    10.66; C_|     2.31; C_}     0.95; C_~     1.01; 
@    MULPOP    dipole moment & components:   1546.2416;      -55.6193  -1545.2410      0.0000
 -----------------------------------------------------------------------------
  30  Screening settings (-IFTHRS, JTDIIS, DIFDEN, times)  -10   30    T  4.02D+01  4.04D+01
@ 30    -139998.010510        5.30232D+01   -8.37D+01    8
      Virial theorem: -V/T =     93.766464
@    MULPOP   C_a    -0.84; C_b    -0.09; C_c     0.14; C_d     0.13; C_e     0.24; C_f     0.51; C_g     1.54; C_h     1.64; C_i     4.22; C_j    -4.09; 
@             C_k    -3.04; C_l     0.91; C_m    -3.31; C_n     0.88; C_o     1.69; C_p     0.65; C_q     9.67; C_r    -1.96; C_s    -0.62; C_t    -1.02; 
@             C_u     0.13; C_v     0.47; C_w     0.79; C_x     0.66; C_y    -3.77; C_z    -0.49; C_{     0.04; C_|     2.10; C_}    -5.19; C_~    -1.02; 
@    MULPOP    dipole moment & components:   1178.6712;       14.2664   1178.5848      0.0000
 -----------------------------------------------------------------------------
  31  Screening settings (-IFTHRS, JTDIIS, DIFDEN, times)  -10   31    T  4.04D+01  4.07D+01
@ 31    -140055.348161        3.89378D+01   -5.73D+01    8
      Virial theorem: -V/T =     97.001184
@    MULPOP   C_a    -4.18; C_b    -2.29; C_c    -1.01; C_d    -1.34; C_e     0.05; C_f     0.11; C_g     0.81; C_h     0.58; C_i     0.12; C_j    -4.78; 
@             C_k    -3.95; C_l     1.02; C_m     0.41; C_n     2.93; C_o    -2.52; C_p    -1.22; C_q     0.98; C_r    -2.95; C_s    -3.69; C_t    -2.73; 
@             C_u    -2.95; C_v    -2.53; C_w    -1.38; C_x    -1.40; C_y     1.32; C_z     2.46; C_{    -0.35; C_|    -1.29; C_}     0.98; C_~     0.63; 
@    MULPOP    dipole moment & components:    708.6778;      -30.5283   -708.0199      0.0000
 -----------------------------------------------------------------------------
  32  Screening settings (-IFTHRS, JTDIIS, DIFDEN, times)  -10   32    T  3.96D+01  3.98D+01
@ 32    -140134.939347        2.41466D+01   -7.96D+01    8
      Virial theorem: -V/T =     96.943689
@    MULPOP   C_a    -2.91; C_b    -1.23; C_c    -2.87; C_d    -2.09; C_e     1.04; C_f     0.50; C_g     1.15; C_h     0.30; C_i     1.23; C_j     2.45; 
@             C_k     1.95; C_l     0.04; C_m    -1.02; C_n    -0.71; C_o    -1.24; C_p    -1.90; C_q     0.59; C_r    -2.61; C_s    -2.34; C_t     0.73; 
@             C_u    -0.66; C_v    -0.95; C_w    -0.55; C_x    -0.49; C_y     0.27; C_z    -2.14; C_{    -3.88; C_|    -1.88; C_}    -1.61; C_~    -0.64; 
@    MULPOP    dipole moment & components:     73.2300;      -15.6979     71.5276      0.0000
 -----------------------------------------------------------------------------
  33  Screening settings (-IFTHRS, JTDIIS, DIFDEN, times)  -10   33    T  3.94D+01  3.96D+01
@ 33    -140124.680858        1.88462D+01    1.03D+01    8
      Virial theorem: -V/T =     95.199948
@    MULPOP   C_a    -2.59; C_b    -0.30; C_c    -1.50; C_d    -1.96; C_e     0.22; C_f     0.94; C_g    -0.25; C_h    -2.00; C_i    -1.34; C_j    -0.19; 
@             C_k    -0.51; C_l     0.35; C_m    -0.12; C_n    -0.66; C_o     0.87; C_p     0.40; C_q     1.62; C_r    -2.67; C_s    -2.26; C_t    -0.89; 
@             C_u    -2.02; C_v    -1.28; C_w    -0.64; C_x    -0.64; C_y     0.39; C_z     2.17; C_{     1.68; C_|     2.28; C_}    -1.64; C_~    -0.58; 
@    MULPOP    dipole moment & components:    356.7182;        7.8866    356.6310      0.0000
 -----------------------------------------------------------------------------
  34  Screening settings (-IFTHRS, JTDIIS, DIFDEN, times)  -10   34    T  3.90D+01  3.95D+01
@ 34    -140155.980224        1.22299D+01   -3.13D+01    8
      Virial theorem: -V/T =     97.127574
@    MULPOP   C_a    -2.31; C_b    -1.14; C_c    -1.13; C_d    -2.42; C_e    -0.48; C_f     0.02; C_g    -1.33; C_h    -0.91; C_i    -0.82; C_j    -1.84; 
@             C_k    -0.71; C_l     0.38; C_m    -0.28; C_n    -1.21; C_o    -0.06; C_p    -2.29; C_q     0.71; C_r    -2.00; C_s    -2.10; C_t     0.10; 
@             C_u    -1.80; C_v    -0.22; C_w    -0.29; C_x    -0.39; C_y    -0.84; C_z    -1.61; C_{    -0.59; C_|     0.43; C_}    -1.27; C_~    -0.66; 
@    MULPOP    dipole moment & components:    420.8223;      -16.9516   -420.4807      0.0000
 -----------------------------------------------------------------------------
  35  Screening settings (-IFTHRS, JTDIIS, DIFDEN, times)  -10   35    T  3.92D+01  3.96D+01
@ 35    -140159.403641        1.08821D+01   -3.42D+00    8
      Virial theorem: -V/T =     95.908881
@    MULPOP   C_a    -3.05; C_b    -1.62; C_c    -1.83; C_d    -2.30; C_e    -0.21; C_f    -0.14; C_g    -1.80; C_h     0.80; C_i     0.64; C_j    -2.05; 
@             C_k     0.76; C_l     1.37; C_m     0.65; C_n    -0.55; C_o     0.95; C_p    -2.37; C_q     0.66; C_r    -2.24; C_s    -1.93; C_t    -0.89; 
@             C_u    -1.61; C_v    -1.11; C_w    -0.60; C_x    -0.38; C_y     2.22; C_z     0.88; C_{    -1.11; C_|     0.29; C_}    -2.02; C_~     0.25; 
@    MULPOP    dipole moment & components:     50.1602;       -4.0434     49.9970      0.0000
 -----------------------------------------------------------------------------
  36  Screening settings (-IFTHRS, JTDIIS, DIFDEN, times)  -10   36    T  3.89D+01  3.91D+01
@ 36    -140173.441699        3.30709D+00   -1.40D+01    8
      Virial theorem: -V/T =     96.533705
@    MULPOP   C_a    -2.49; C_b    -0.97; C_c    -1.44; C_d    -2.05; C_e    -0.32; C_f     0.12; C_g    -1.22; C_h    -0.89; C_i    -0.60; C_j    -1.28; 
@             C_k    -0.08; C_l     0.63; C_m     0.14; C_n    -0.18; C_o     0.31; C_p    -1.95; C_q     0.82; C_r    -1.94; C_s    -2.15; C_t    -0.63; 
@             C_u    -1.45; C_v    -0.97; C_w    -0.49; C_x    -0.31; C_y    -0.00; C_z    -0.96; C_{    -0.83; C_|     0.25; C_}    -1.91; C_~    -0.23; 
@    MULPOP    dipole moment & components:    151.2541;       -7.4650   -151.0698      0.0000
 -----------------------------------------------------------------------------
  37  Screening settings (-IFTHRS, JTDIIS, DIFDEN, times)  -10   37    T  3.85D+01  3.87D+01
@ 37    -140172.651591        4.69641D+00    7.90D-01    8
      Virial theorem: -V/T =     96.243206
@    MULPOP   C_a    -2.38; C_b    -1.19; C_c    -1.59; C_d    -1.75; C_e    -0.35; C_f     0.12; C_g    -1.13; C_h    -0.77; C_i     0.48; C_j    -0.97; 
@             C_k    -0.07; C_l     0.81; C_m    -0.05; C_n    -0.41; C_o     0.14; C_p    -1.63; C_q     0.79; C_r    -1.86; C_s    -2.21; C_t    -0.50; 
@             C_u    -1.07; C_v    -0.89; C_w    -0.34; C_x    -0.45; C_y    -0.18; C_z    -0.88; C_{    -0.86; C_|     0.25; C_}    -1.95; C_~    -0.25; 
@    MULPOP    dipole moment & components:     37.7334;       -9.7765    -36.4448      0.0000
 -----------------------------------------------------------------------------
[...]
1143 O_b :3d2-   0.0174   0.0019   0.0004  -0.0391   0.0012   0.0000
1146 O_b :3d1+   0.0000  -0.0000  -0.0000   0.0000  -0.0000   0.0407
1147 O_b :3d2+  -0.0047  -0.0004  -0.0010   0.0156  -0.0013  -0.0000
1148 O_b :3d2-   0.0184   0.0016  -0.0078   0.0528  -0.0039  -0.0000
1151 O_b :3d1+   0.0000  -0.0000   0.0000  -0.0000  -0.0000  -0.0212
1152 O_b :3d2+  -0.0090   0.0056   0.0187  -0.0127   0.0043   0.0000
1154 H_a :1s    -0.0081  -0.0145   0.0528  -0.0020  -0.0464  -0.0000
1155 H_a :1s    -0.0254  -0.0652  -0.1482  -0.1135  -0.0782   0.0000
1156 H_a :1s     0.0347  -0.0378   0.1491   0.0466  -0.0169  -0.0000
1160 H_a :2px    0.0014   0.0069  -0.0097  -0.0010   0.0145   0.0000
1161 H_a :2py    0.0055   0.0079   0.0219   0.0072  -0.0115   0.0000
1163 H_a :2px   -0.0251   0.1347   0.1685   0.0365   0.0766  -0.0000
1164 H_a :2py   -0.0089   0.0129  -0.0237  -0.0058   0.0293  -0.0000
1165 H_a :2pz   -0.0000  -0.0000  -0.0000   0.0000   0.0000   0.2723
1167 H_b :1s    -0.0473   0.0723   0.0475  -0.0628  -0.0027   0.0000
1168 H_b :1s    -0.0234  -0.0482  -0.0129  -0.0797  -0.0739   0.0000
1169 H_b :1s    -0.0555   0.2644   0.2743   0.0368   0.1682   0.0000
1173 H_b :2px   -0.0124   0.0247   0.0237  -0.0139   0.0010  -0.0000
1174 H_b :2py    0.0013   0.0048   0.0150  -0.0065   0.0128   0.0000
1176 H_b :2px   -0.0186   0.0359  -0.0047   0.0149   0.0489  -0.0000
1177 H_b :2py   -0.0098   0.0169  -0.0091   0.0022   0.0072  -0.0000
1178 H_b :2pz   -0.0000  -0.0000  -0.0000   0.0000   0.0000  -0.3204
1180 H_c :1s     0.0581  -0.1465  -0.1344   0.0596  -0.0685  -0.0000
1181 H_c :1s     0.0634  -0.1583   0.0601  -0.0616  -0.1008  -0.0000
1182 H_c :1s     0.0354   0.1221   0.2045   0.0882   0.0110  -0.0000
1186 H_c :2px   -0.0129   0.0275   0.0295  -0.0140   0.0113   0.0000
1187 H_c :2py    0.0025  -0.0087  -0.0208   0.0014  -0.0105  -0.0000
1189 H_c :2px    0.0239  -0.0777  -0.0818   0.0252  -0.0457   0.0000
1190 H_c :2py   -0.0069   0.0269   0.0506   0.0100  -0.0028   0.0000
1191 H_c :2pz    0.0000   0.0000  -0.0000   0.0000  -0.0000  -0.2273
1193 H_d :1s    -0.0126   0.0764   0.1396  -0.0165   0.0659   0.0000
1194 H_d :1s     0.0181   0.0084   0.1482   0.0007   0.0219  -0.0000
1195 H_d :1s    -0.0280  -0.0311   0.0557  -0.0960  -0.0086   0.0000
1199 H_d :2px   -0.0028   0.0139   0.0287  -0.0050   0.0103   0.0000
1200 H_d :2py    0.0004  -0.0069   0.0178   0.0023  -0.0124   0.0000
1202 H_d :2px    0.0219  -0.0514   0.0162  -0.0055  -0.0534   0.0000
1203 H_d :2py    0.0003   0.0121   0.0345  -0.0027  -0.0050   0.0000
1204 H_d :2pz    0.0000   0.0000   0.0000  -0.0000  -0.0000   0.3178
1206 H_e :1s    -0.0374   0.0904   0.0406  -0.0393   0.0420   0.0000
1207 H_e :1s     0.0131   0.0963   0.0328   0.0731  -0.0037  -0.0000
1208 H_e :1s    -0.0514   0.0566  -0.1496  -0.0286   0.0464   0.0000
1212 H_e :2px    0.0101  -0.0221  -0.0135   0.0079  -0.0092  -0.0000
1213 H_e :2py   -0.0008   0.0280   0.0341  -0.0019   0.0192   0.0000
1214 H_e :2pz    0.0000   0.0000   0.0000  -0.0000  -0.0000   0.0117
1215 H_e :2px   -0.0324   0.0401  -0.0147  -0.0431   0.0265   0.0000
1216 H_e :2py    0.0019  -0.0193  -0.0177  -0.0028  -0.0156  -0.0000
1217 H_e :2pz   -0.0000   0.0000   0.0000  -0.0000   0.0000   0.1579
1219 H_f :1s     0.0201  -0.0813  -0.1068   0.0614  -0.0335  -0.0000
1220 H_f :1s     0.0611   0.0703   0.0927   0.1060  -0.0544  -0.0000
1221 H_f :1s     0.0524  -0.2930  -0.3262  -0.0522  -0.1652  -0.0000
1225 H_f :2px    0.0035  -0.0148  -0.0258   0.0104  -0.0042  -0.0000
1226 H_f :2py   -0.0001   0.0138  -0.0002  -0.0037   0.0017   0.0000
1228 H_f :2px   -0.0097   0.0811   0.0356   0.0113   0.0438  -0.0000
1229 H_f :2py   -0.0007   0.0022  -0.0067   0.0024  -0.0121  -0.0000
1230 H_f :2pz   -0.0000  -0.0000  -0.0000   0.0000   0.0000  -0.2637
1232 H_g :1s     0.0225  -0.0058   0.1020   0.0244  -0.0085   0.0000
1233 H_g :1s     0.0896   0.0187   0.2091   0.0233  -0.0680   0.0000
1234 H_g :1s    -0.0249  -0.1426  -0.2042  -0.0910  -0.0148   0.0000
1238 H_g :2px   -0.0057   0.0077  -0.0145  -0.0007   0.0100  -0.0000
1239 H_g :2py    0.0084  -0.0388  -0.0081  -0.0013  -0.0272   0.0000
1241 H_g :2px    0.0036  -0.0365  -0.0197   0.0062   0.0143   0.0000
1242 H_g :2py    0.0045  -0.0361  -0.0348  -0.0191  -0.0210  -0.0000
1243 H_g :2pz    0.0000  -0.0000  -0.0000   0.0000  -0.0000  -0.1054
1245 H_h :1s    -0.0406   0.1079   0.0587  -0.0128   0.1173   0.0000
1246 H_h :1s     0.0149   0.0994   0.2806   0.0467   0.1156   0.0000
1247 H_h :1s     0.0295   0.0138  -0.0989   0.0754  -0.0062  -0.0000
1251 H_h :2px   -0.0099   0.0152   0.0083  -0.0065   0.0211   0.0000
1252 H_h :2py    0.0003  -0.0038  -0.0074  -0.0025   0.0195   0.0000
1254 H_h :2px    0.0143  -0.0127   0.0669   0.0062  -0.0188   0.0000
1255 H_h :2py    0.0179  -0.0559  -0.0402  -0.0102  -0.0246  -0.0000
1256 H_h :2pz    0.0000   0.0000  -0.0000   0.0000  -0.0000   0.1826
1258 H_i :1s     0.0206  -0.0110  -0.0493   0.0525   0.0108   0.0000
1259 H_i :1s    -0.0303   0.2763   0.3724   0.1029   0.1772   0.0000
1260 H_i :1s     0.0603  -0.1067   0.1156   0.0246  -0.0653  -0.0000
1264 H_i :2px   -0.0033   0.0026   0.0219  -0.0124  -0.0039  -0.0000
1265 H_i :2py   -0.0014   0.0091  -0.0326   0.0001   0.0083   0.0000
1267 H_i :2px   -0.0055  -0.0360  -0.0821  -0.0133  -0.0324  -0.0000
1268 H_i :2py   -0.0069  -0.0219  -0.0577  -0.0069   0.0070  -0.0000
1269 H_i :2pz    0.0000   0.0000  -0.0000  -0.0000   0.0000   0.0544
1271 H_j :1s    -0.0062   0.0905   0.1889  -0.0173   0.0380   0.0000
1272 H_j :1s    -0.0066   0.1749   0.2520   0.0244   0.0884   0.0000
1273 H_j :1s    -0.0612   0.2825   0.2990   0.0349   0.1629   0.0000
1277 H_j :2px   -0.0013   0.0163   0.0372  -0.0028   0.0060  -0.0000
1278 H_j :2py    0.0031  -0.0347  -0.0021   0.0030   0.0029   0.0000
1279 H_j :2pz   -0.0000  -0.0000  -0.0000  -0.0000  -0.0000   0.0103
1280 H_j :2px    0.0060  -0.0167  -0.0188   0.0020   0.0064   0.0000
1281 H_j :2py    0.0098  -0.0170   0.0044   0.0290   0.0022  -0.0000
1282 H_j :2pz   -0.0000   0.0000   0.0000  -0.0000  -0.0000  -0.0945
1284 H_k :1s    -0.0107   0.0089  -0.1276  -0.0414  -0.0756  -0.0000
1285 H_k :1s     0.1273  -0.2871  -0.3452  -0.1422  -0.3053   0.0000
1286 H_k :1s    -0.0130   0.1675   0.1279   0.0967   0.0429  -0.0000
1290 H_k :2px    0.0017   0.0002   0.0236   0.0070   0.0140   0.0000
1291 H_k :2py   -0.0037   0.0185   0.0053   0.0050   0.0413   0.0000
1293 H_k :2px   -0.0145   0.0696   0.0905   0.0319   0.0533  -0.0000
1294 H_k :2py   -0.0106   0.0681   0.0407   0.0212   0.0228  -0.0000
1295 H_k :2pz   -0.0000  -0.0000   0.0000   0.0000  -0.0000  -0.0224
1297 H_l :1s     0.0006  -0.1151  -0.1404  -0.0269  -0.0070  -0.0000
1298 H_l :1s    -0.0125  -0.3328  -0.4069  -0.2499  -0.1350   0.0000
1299 H_l :1s    -0.0258  -0.0134   0.1017  -0.0538   0.0153   0.0000
1303 H_l :2px    0.0020  -0.0173  -0.0218  -0.0013   0.0050  -0.0000
1304 H_l :2py   -0.0059   0.0213  -0.0273   0.0075  -0.0122   0.0000
1306 H_l :2px    0.0022  -0.0021  -0.0015  -0.0273   0.0024   0.0000
1307 H_l :2py   -0.0219   0.0316  -0.0349  -0.0226   0.0034  -0.0000
1308 H_l :2pz    0.0000  -0.0000  -0.0000   0.0000   0.0000   0.0319
1310 H_m :1s    -0.0080  -0.0421  -0.0881  -0.0093  -0.0183  -0.0000
1311 H_m :1s    -0.1294  -0.1382  -0.4175  -0.1775   0.0311  -0.0000
1312 H_m :1s    -0.0778   0.1964  -0.0448  -0.0117   0.0964   0.0000
1317 H_m :2py   -0.0005  -0.0115   0.0304   0.0133   0.0535   0.0000
1319 H_m :2px    0.0138  -0.0103   0.0111   0.0041  -0.0202   0.0000
1320 H_m :2py   -0.0014   0.0123  -0.0008   0.0188  -0.0028  -0.0000
1321 H_m :2pz    0.0000   0.0000  -0.0000  -0.0000   0.0000   0.0208
1323 H_n :1s    -0.0322  -0.0327  -0.0266  -0.0432   0.0110  -0.0000
1324 H_n :1s    -0.0959   0.0240   0.0342   0.0401   0.1493  -0.0000
1325 H_n :1s     0.0918  -0.2749  -0.2598  -0.0282  -0.2065  -0.0000
1329 H_n :2px   -0.0052  -0.0126   0.0008  -0.0106   0.0013  -0.0000
1330 H_n :2py   -0.0060   0.0445  -0.0207   0.0071  -0.0122  -0.0000
1331 H_n :2pz    0.0000   0.0000   0.0000  -0.0000  -0.0000   0.0120
1332 H_n :2px   -0.0131  -0.0687  -0.0881  -0.0395  -0.0297  -0.0000
1333 H_n :2py   -0.0327   0.0521   0.0814   0.0218   0.0217   0.0000
1336 H_o :1s     0.0043  -0.0074   0.0574  -0.0138   0.0681  -0.0000
1337 H_o :1s    -0.0273  -0.1191  -0.0426  -0.1223   0.0434   0.0000
1338 H_o :1s     0.0836  -0.2849  -0.0216  -0.0374  -0.1118  -0.0000
1342 H_o :2px   -0.0033   0.0082  -0.0151   0.0010  -0.0175  -0.0000
1343 H_o :2py   -0.0042  -0.0149   0.0250   0.0049   0.0417   0.0000
1345 H_o :2px    0.0067   0.0174   0.0216   0.0154  -0.0127  -0.0000
1346 H_o :2py   -0.0428  -0.0623  -0.1458  -0.1007  -0.0451  -0.0000
1347 H_o :2pz    0.0000   0.0000   0.0000   0.0000  -0.0000  -0.0119
1349 H_p :1s     0.0037   0.0491  -0.0477  -0.0032  -0.0956  -0.0000
1350 H_p :1s     0.0859  -0.1152  -0.1206   0.0241  -0.0565  -0.0000
1351 H_p :1s    -0.0564   0.1697   0.0424   0.0309   0.1131   0.0000
1355 H_p :2px    0.0015   0.0007  -0.0143  -0.0024  -0.0220  -0.0000
1356 H_p :2py   -0.0022   0.0194  -0.0048   0.0023  -0.0011  -0.0000
1358 H_p :2px    0.0056   0.0036   0.0187   0.0136   0.0126  -0.0000
1359 H_p :2py   -0.0116   0.1070   0.1035   0.0901   0.1069  -0.0000
1360 H_p :2pz   -0.0000  -0.0000  -0.0000  -0.0000  -0.0000  -0.0202
1361 H_q :1s     0.0002  -0.0063   0.0112   0.0009   0.0098   0.0000
1362 H_q :1s    -0.0015   0.0079   0.0263   0.0074   0.0135   0.0000
1363 H_q :1s    -0.0109   0.2111   0.1450   0.0371  -0.0747   0.0000
1364 H_q :1s    -0.0272   0.1361   0.0232   0.0378   0.0479  -0.0000
1371 H_q :2px    0.0109  -0.0013   0.0159   0.0327   0.0457   0.0000
1372 H_q :2py   -0.0094  -0.0749  -0.0856  -0.0603  -0.0500  -0.0000
1373 H_q :2pz   -0.0000  -0.0000  -0.0000  -0.0000  -0.0000  -0.0161
1374 H_r :1s     0.0004  -0.0094   0.0117   0.0006   0.0116  -0.0000
1375 H_r :1s     0.0023  -0.0207  -0.0804  -0.0107  -0.0495   0.0000
1376 H_r :1s    -0.0012  -0.0991   0.1073  -0.0830   0.1385   0.0000
1377 H_r :1s     0.0154  -0.0762   0.0292  -0.0281  -0.0291  -0.0000
1381 H_r :2px    0.0013  -0.0105  -0.0186  -0.0026  -0.0075  -0.0000
1382 H_r :2py    0.0003  -0.0043   0.0174   0.0011   0.0133  -0.0000
1384 H_r :2px    0.0028   0.0223   0.0299   0.0351   0.0572   0.0000
1385 H_r :2py    0.0086   0.0168  -0.0510   0.0344  -0.0279  -0.0000
1388 H_s :1s    -0.0141  -0.0125   0.0032  -0.0328  -0.0851   0.0000
1389 H_s :1s     0.0270  -0.0551  -0.1364   0.0914  -0.0607  -0.0000
1390 H_s :1s     0.0145  -0.0462   0.1263   0.0224  -0.0322   0.0000
1394 H_s :2px    0.0021   0.0032  -0.0074   0.0060   0.0199  -0.0000
1395 H_s :2py   -0.0052   0.0169   0.0128   0.0016  -0.0443  -0.0000
1397 H_s :2px   -0.0076  -0.0077   0.0077  -0.0145  -0.0191   0.0000
1398 H_s :2py   -0.0120   0.0023  -0.0270  -0.0038   0.0103  -0.0000
1399 H_s :2pz    0.0000   0.0000   0.0000   0.0000  -0.0000   0.1671
1401 H_t :1s     0.0203   0.0205   0.0148   0.0130   0.0386   0.0000
1402 H_t :1s     0.0375   0.0357   0.1055   0.0734   0.0362   0.0000
1403 H_t :1s    -0.0818   0.1842   0.1370  -0.0236   0.1805   0.0000
1408 H_t :2py   -0.0079   0.0024  -0.0284  -0.0028   0.0328  -0.0000
1410 H_t :2px   -0.0223   0.0484   0.0046   0.0076   0.0408  -0.0000
1411 H_t :2py   -0.0055  -0.0360  -0.0507  -0.0207  -0.0119  -0.0000
1412 H_t :2pz    0.0000   0.0000  -0.0000   0.0000  -0.0000  -0.0657
1414 H_u :1s     0.0313  -0.0967  -0.0058  -0.0045  -0.0135  -0.0000
1415 H_u :1s     0.0293   0.0156   0.0555  -0.0171  -0.0145   0.0000
1416 H_u :1s     0.0406   0.0521   0.1666   0.0403   0.0002   0.0000
1420 H_u :2px   -0.0068   0.0247   0.0110  -0.0003   0.0030   0.0000
1421 H_u :2py   -0.0016   0.0098   0.0150   0.0059  -0.0301  -0.0000
1424 H_u :2py    0.0042  -0.0254  -0.0206   0.0078  -0.0156  -0.0000
1425 H_u :2pz    0.0000   0.0000   0.0000  -0.0000   0.0000  -0.2318
1427 H_v :1s    -0.0587   0.0650   0.0809  -0.0465   0.0214   0.0000
1428 H_v :1s    -0.0542   0.2295   0.1439   0.0713   0.0671  -0.0000
1429 H_v :1s    -0.0352  -0.0137   0.0449  -0.1094   0.0185   0.0000
1433 H_v :2px   -0.0138   0.0142   0.0166  -0.0136  -0.0017   0.0000
1434 H_v :2py    0.0004   0.0309   0.0380   0.0003   0.0088  -0.0000
1436 H_v :2px    0.0288  -0.0425  -0.0019   0.0021  -0.0556   0.0000
1437 H_v :2py   -0.0040   0.0124   0.0294   0.0061   0.0129   0.0000
1438 H_v :2pz   -0.0000  -0.0000   0.0000  -0.0000   0.0000   0.1398
1440 H_w :1s     0.0120   0.0472   0.0275   0.0594   0.0628   0.0000
1441 H_w :1s    -0.0234   0.2010   0.1767   0.0778   0.0216  -0.0000
1442 H_w :1s    -0.0258   0.0400  -0.1384  -0.0333   0.0243   0.0000
1446 H_w :2px   -0.0036  -0.0073   0.0051  -0.0111  -0.0145  -0.0000
1449 H_w :2px    0.0002   0.0085   0.0327   0.0127   0.0124   0.0000
1450 H_w :2py   -0.0092   0.0519   0.0571   0.0122   0.0250   0.0000
1451 H_w :2pz   -0.0000  -0.0000  -0.0000   0.0000  -0.0000   0.2820
1453 H_x :1s     0.0602  -0.1042   0.0114   0.0379  -0.0439  -0.0000
1454 H_x :1s     0.0482   0.0466   0.1739   0.0922  -0.0450  -0.0000
1455 H_x :1s     0.0732  -0.2318  -0.2164  -0.0120  -0.1790  -0.0000
1459 H_x :2px    0.0115  -0.0316  -0.0083   0.0062  -0.0123  -0.0000
1460 H_x :2py   -0.0007   0.0083   0.0297   0.0029  -0.0139   0.0000
1462 H_x :2px   -0.0293   0.1062   0.0653   0.0436   0.0678  -0.0000
1463 H_x :2py   -0.0030   0.0228   0.0270  -0.0024  -0.0081   0.0000
1464 H_x :2pz    0.0000  -0.0000  -0.0000   0.0000  -0.0000  -0.2152
1466 H_y :1s    -0.0050   0.0116   0.0387  -0.0613  -0.0331   0.0000
1467 H_y :1s    -0.0092   0.0476   0.0479  -0.0017   0.0163   0.0000
1468 H_y :1s    -0.0417  -0.0952  -0.1931  -0.0627   0.0043  -0.0000
1472 H_y :2px    0.0045  -0.0067  -0.0087   0.0142   0.0086  -0.0000
1473 H_y :2py    0.0105  -0.0020   0.0001   0.0008   0.0184   0.0000
1475 H_y :2px    0.0180  -0.1195  -0.1459  -0.0447  -0.0510  -0.0000
1476 H_y :2py    0.0193  -0.0418  -0.0123   0.0020  -0.0275   0.0000
1477 H_y :2pz    0.0000   0.0000   0.0000  -0.0000   0.0000  -0.2907
1479 H_z :1s     0.0253   0.0504  -0.0061   0.0641   0.0866   0.0000
1480 H_z :1s    -0.0280   0.0603  -0.0618  -0.0160   0.0575   0.0000
1481 H_z :1s     0.0312   0.0189  -0.0634   0.0991   0.0010  -0.0000
1485 H_z :2px    0.0059   0.0081  -0.0096   0.0128   0.0237   0.0000
1488 H_z :2px    0.0192  -0.0760  -0.0258  -0.0521  -0.0692   0.0000
1489 H_z :2py    0.0086  -0.0319  -0.0211  -0.0063  -0.0002   0.0000
1490 H_z :2pz    0.0000   0.0000   0.0000   0.0000  -0.0000   0.2825
1492 H_{ :1s    -0.0025   0.0522   0.0283   0.0069   0.0343   0.0000
1493 H_{ :1s     0.0547   0.2162   0.3519   0.1609   0.0583   0.0000
1494 H_{ :1s    -0.0024   0.0688  -0.0466   0.0030   0.0623   0.0000
1498 H_{ :2px   -0.0014  -0.0135  -0.0119   0.0021  -0.0082  -0.0000
1499 H_{ :2py    0.0158   0.0352   0.0345   0.0231  -0.0078   0.0000
1501 H_{ :2px    0.0003  -0.1060  -0.1363  -0.0506  -0.0502  -0.0000
1502 H_{ :2py    0.0276   0.0220   0.0733   0.0677   0.0052   0.0000
1503 H_{ :2pz    0.0000   0.0000   0.0000   0.0000  -0.0000   0.0627
1505 H_| :1s     0.0076  -0.1201  -0.0844  -0.0419  -0.0831  -0.0000
1506 H_| :1s     0.0093  -0.3482  -0.1858  -0.2056  -0.1244   0.0000
1507 H_| :1s     0.0958  -0.1382  -0.0161   0.0435  -0.1892  -0.0000
1511 H_| :2px    0.0049  -0.0304  -0.0179  -0.0109  -0.0204  -0.0000
1512 H_| :2py   -0.0007   0.0070  -0.0057   0.0038   0.0192   0.0000
1514 H_| :2px   -0.0150  -0.0605  -0.1025  -0.0718  -0.0135   0.0000
1515 H_| :2py    0.0041   0.0369   0.0400  -0.0123   0.0079   0.0000
1518 H_} :1s    -0.0399   0.0706  -0.0025  -0.0105   0.0597  -0.0000
1519 H_} :1s    -0.1439  -0.2287  -0.5245  -0.2524  -0.0005  -0.0000
1520 H_} :1s    -0.0408   0.0056  -0.0913  -0.0099   0.0189  -0.0000
1524 H_} :2px    0.0064  -0.0183  -0.0051  -0.0016  -0.0154   0.0000
1525 H_} :2py    0.0044   0.0249   0.0158   0.0045  -0.0248  -0.0000
1527 H_} :2px    0.0151   0.0780   0.1095   0.0329   0.0353  -0.0000
1528 H_} :2py    0.0141   0.0013  -0.0120   0.0077   0.0041   0.0000
1529 H_} :2pz   -0.0000  -0.0000  -0.0000  -0.0000   0.0000  -0.1126
1531 H_~ :1s    -0.0275   0.0009  -0.0975  -0.0136   0.0048  -0.0000
1532 H_~ :1s    -0.1204  -0.0780  -0.5079  -0.0406   0.0473  -0.0000
1533 H_~ :1s     0.0622   0.0010   0.0029   0.1152  -0.0597  -0.0000
1537 H_~ :2px   -0.0037   0.0006  -0.0174  -0.0001   0.0044  -0.0000
1538 H_~ :2py   -0.0059  -0.0207  -0.0432  -0.0039   0.0231  -0.0000
1540 H_~ :2px    0.0019  -0.0272  -0.0428   0.0051  -0.0101  -0.0000
1541 H_~ :2py    0.0005  -0.0459  -0.0368  -0.0252  -0.0108   0.0000
1542 H_~ :2pz   -0.0000  -0.0000  -0.0000   0.0000   0.0000   0.0186
1543 H_ :1s    -0.0101  -0.0019  -0.0017   0.0755  -0.0018  -0.0000
1544 H_ :1s    -0.0403  -0.0820  -0.0962   0.1329  -0.0108  -0.0000
1545 H_ :1s     0.0616  -0.0009   0.2221   0.1597  -0.0862   0.0000
1546 H_ :1s     0.0210   0.0061  -0.0026   0.0053   0.0141  -0.0000
1550 H_ :2px    0.0263   0.0185   0.0232  -0.0532   0.0043   0.0000
1551 H_ :2py    0.0113  -0.0084  -0.0023   0.0206  -0.0043   0.0000
1553 H_ :2px   -0.0122  -0.0406  -0.0717  -0.0499   0.0006  -0.0000
1554 H_ :2py    0.0100  -0.1449  -0.0684  -0.0493  -0.0847   0.0000
1555 H_ :2pz   -0.0000   0.0000   0.0000  -0.0000   0.0000   0.0199
1556 H_:1s     0.0058   0.0023   0.0030  -0.0201   0.0005   0.0000
1557 H_:1s    -0.0040   0.0524   0.0789  -0.0172   0.0090   0.0000
1558 H_:1s    -0.0282  -0.1849  -0.0862  -0.2021  -0.0507   0.0000
1559 H_:1s     0.0352   0.0037   0.0713   0.0750   0.0147  -0.0000
1563 H_:2px   -0.0018   0.0090   0.0150   0.0024  -0.0000   0.0000
1564 H_:2py    0.0026  -0.0078  -0.0116  -0.0068   0.0049   0.0000
1566 H_:2px   -0.0243  -0.0035  -0.0005  -0.0400   0.0134  -0.0000
1567 H_:2py    0.0284   0.0187   0.1196   0.0512   0.0734   0.0000
1568 H_:2pz   -0.0000  -0.0000   0.0000  -0.0000  -0.0000  -0.0139
1570 H_:1s     0.0406  -0.0067  -0.0169  -0.0445   0.0020  -0.0000
1571 H_:1s     0.0204   0.0265   0.0723  -0.0440   0.1530  -0.0000
1572 H_:1s     0.0108  -0.0697   0.0125  -0.0267  -0.0905   0.0000
1576 H_:2px   -0.0118   0.0043   0.0119   0.0147   0.0005   0.0000
1577 H_:2py    0.0057   0.0214   0.0183   0.0201   0.0026  -0.0000
1579 H_:2px   -0.0046   0.0907   0.0866   0.0660   0.0225   0.0000
1580 H_:2py   -0.0076   0.0173   0.0395   0.0105   0.0072   0.0000
1581 H_:2pz   -0.0000  -0.0000  -0.0000   0.0000  -0.0000  -0.0312
1583 H_:1s    -0.0012   0.0016   0.0156   0.0258  -0.0036  -0.0000
1584 H_:1s     0.0729   0.2434   0.3494   0.2541   0.0614  -0.0000
1585 H_:1s    -0.1374   0.0748  -0.0973  -0.1559   0.1423   0.0000
1592 H_:2px    0.0352   0.0319   0.1198   0.0909   0.0184   0.0000
1593 H_:2py    0.0038  -0.0676  -0.1052  -0.0538  -0.0278   0.0000

  Total CPU  time used in SIRIUS :   4 hours 48 minutes 12 seconds
  Total wall time used in SIRIUS :   4 hours 49 minutes 46 seconds

 
     Date and time (Linux)  : Fri May 30 17:41:48 2025
     Host name              : xm052                                   

 NOTE:    3 warnings have been issued.
 Check output, result, and error files for "WARNING".


                     .---------------------------------------.
                     | End of Wave Function Section (SIRIUS) |
                     `---------------------------------------'


@ - DALTON aborted because wave function not converged!

  --- SEVERE ERROR, PROGRAM WILL BE ABORTED ---
     Date and time (Linux)  : Fri May 30 17:41:48 2025
     Host name              : xm052                                   

@ MPI MASTER, node no.:     0
@ Reason: DALTON aborted because wave function not converged

  Total CPU  time used in DALTON:   4 hours 48 minutes 32 seconds
  Total wall time used in DALTON:   4 hours 50 minutes  6 seconds


 QTRACE dump of internal trace stack

 ========================
      level    module
 ========================
          3    SIRIUS      
          2    DALTON      
          1    DALTON main 
 ========================

