

     ************************************************************************
     *************** Dalton - An Electronic Structure Program ***************
     ************************************************************************

    This is output from DALTON release Dalton2020.0 (2020)
         ( Web site: http://daltonprogram.org )

   ----------------------------------------------------------------------------

    NOTE:
     
    Dalton is an experimental code for the evaluation of molecular
    properties using (MC)SCF, DFT, CI, and CC wave functions.
    The authors accept no responsibility for the performance of
    the code or for the correctness of the results.
     
    The code (in whole or part) is provided under a licence and
    is not to be reproduced for further distribution without
    the written permission of the authors or their representatives.
     
    See the home page "http://daltonprogram.org" for further information.
     
    If results obtained with this code are published,
    the appropriate citations would be both of:
     
       K. Aidas, C. Angeli, K. L. Bak, V. Bakken, R. Bast,
       L. Boman, O. Christiansen, R. Cimiraglia, S. Coriani,
       P. Dahle, E. K. Dalskov, U. Ekstroem,
       T. Enevoldsen, J. J. Eriksen, P. Ettenhuber, B. Fernandez,
       L. Ferrighi, H. Fliegl, L. Frediani, K. Hald, A. Halkier,
       C. Haettig, H. Heiberg, T. Helgaker, A. C. Hennum,
       H. Hettema, E. Hjertenaes, S. Hoest, I.-M. Hoeyvik,
       M. F. Iozzi, B. Jansik, H. J. Aa. Jensen, D. Jonsson,
       P. Joergensen, J. Kauczor, S. Kirpekar,
       T. Kjaergaard, W. Klopper, S. Knecht, R. Kobayashi, H. Koch,
       J. Kongsted, A. Krapp, K. Kristensen, A. Ligabue,
       O. B. Lutnaes, J. I. Melo, K. V. Mikkelsen, R. H. Myhre,
       C. Neiss, C. B. Nielsen, P. Norman, J. Olsen,
       J. M. H. Olsen, A. Osted, M. J. Packer, F. Pawlowski,
       T. B. Pedersen, P. F. Provasi, S. Reine, Z. Rinkevicius,
       T. A. Ruden, K. Ruud, V. Rybkin, P. Salek, C. C. M. Samson,
       A. Sanchez de Meras, T. Saue, S. P. A. Sauer,
       B. Schimmelpfennig, K. Sneskov, A. H. Steindal,
       K. O. Sylvester-Hvid, P. R. Taylor, A. M. Teale,
       E. I. Tellgren, D. P. Tew, A. J. Thorvaldsen, L. Thoegersen,
       O. Vahtras, M. A. Watson, D. J. D. Wilson, M. Ziolkowski
       and H. Agren,
       "The Dalton quantum chemistry program system",
       WIREs Comput. Mol. Sci. 2014, 4:269–284 (doi: 10.1002/wcms.1172)
     
    and
     
       Dalton, a molecular electronic structure program,
       Release Dalton2020.0 (2020), see http://daltonprogram.org
   ----------------------------------------------------------------------------

    Authors in alphabetical order (Major contribution(s) in parenthesis):

  Kestutis Aidas,           Vilnius University,           Lithuania   (QM/MM)
  Celestino Angeli,         University of Ferrara,        Italy       (NEVPT2)
  Keld L. Bak,              UNI-C,                        Denmark     (AOSOPPA, non-adiabatic coupling, magnetic properties)
  Vebjoern Bakken,          University of Oslo,           Norway      (DALTON; geometry optimizer, symmetry detection)
  Radovan Bast,             UiT The Arctic U. of Norway,  Norway      (DALTON installation and execution frameworks)
  Pablo Baudin,             University of Valencia,       Spain       (Cholesky excitation energies)
  Linus Boman,              NTNU,                         Norway      (Cholesky decomposition and subsystems)
  Bruno N. Cabral Tenorio,  Technical Univ. of Denmark,   Denmark     (Lanczos-based CC methods)
  Ove Christiansen,         Aarhus University,            Denmark     (CC module)
  Renzo Cimiraglia,         University of Ferrara,        Italy       (NEVPT2)
  Sonia Coriani,            Technical Univ. of Denmark,   Denmark     (CC and RESPONS modules)
  Janusz Cukras,            University of Warsaw,         Poland      (MChD in RESPONS)
  Paal Dahle,               University of Oslo,           Norway      (Parallelization)
  Erik K. Dalskov,          UNI-C,                        Denmark     (SOPPA)
  Thomas Enevoldsen,        Univ. of Southern Denmark,    Denmark     (SOPPA)
  Janus J. Eriksen,         Aarhus University,            Denmark     (Polarizable embedding, TDA)
  Rasmus Faber,             Technical Univ. of Denmark,   Denmark     (Vib.avg. NMR w. SOPPA, parallel AO-SOPPA, CVS-CC and EOMCC)
  Tobias Fahleson,          KTH Stockholm,                Sweden      (Damped cubic response)
  Berta Fernandez,          U. of Santiago de Compostela, Spain       (Doublet spin, ESR in RESPONS)
  Lara Ferrighi,            Aarhus University,            Denmark     (PCM Cubic response)
  Heike Fliegl,             University of Oslo,           Norway      (CCSD(R12))
  Luca Frediani,            UiT The Arctic U. of Norway,  Norway      (PCM)
  Emmanuel Fromager,        Univ. Strasbourg,             France      (MC-srDFT)
  Bin Gao,                  UiT The Arctic U. of Norway,  Norway      (Gen1Int library)
  Andre S. P. Gomes,        CNRS/Universite de Lille,     France      (Frozen density embedding)
  Christof Haettig,         Ruhr-University Bochum,       Germany     (CC module)
  Kasper Hald,              Aarhus University,            Denmark     (CC module)
  Asger Halkier,            Aarhus University,            Denmark     (CC module)
  Frederik Beyer Hansen,    University of Copenhagen,     Denmark     (Parallel AO-SOPPA)
  Erik D. Hedegaard,        Univ. of Southern Denmark,    Denmark     (Polarizable embedding, QM/MM, and MC-srDFT)
  Hanne Heiberg,            University of Oslo,           Norway      (Geometry analysis, selected one-electron integrals)
  Trygve Helgaker,          University of Oslo,           Norway      (DALTON; ABACUS, ERI, DFT modules, London, and much more)
  Alf Christian Hennum,     University of Oslo,           Norway      (Parity violation)
  Hinne Hettema,            University of Auckland,       New Zealand (Quadratic response in RESPONS; SIRIUS supersymmetry)
  Eirik Hjertenaes,         NTNU,                         Norway      (Cholesky decomposition)
  Pi A. B. Haase,           University of Copenhagen,     Denmark     (Triplet AO-SOPPA)
  Maria Francesca Iozzi,    University of Oslo,           Norway      (RPA)
  Christoph Jacob           TU Braunschweig               Germany     (Frozen density embedding)
  Brano Jansik              Technical Univ. of Ostrava    Czech Rep.  (DFT cubic response)
  Hans Joergen Aa. Jensen,  Univ. of Southern Denmark,    Denmark     (DALTON; SIRIUS, RESPONS, ABACUS, MC-srDFT, and much more)
  Dan Jonsson,              UiT The Arctic U. of Norway,  Norway      (Cubic response in RESPONS module)
  Poul Joergensen,          Aarhus University,            Denmark     (RESPONS, ABACUS, and CC modules)
  Maciej Kaminski,          University of Warsaw,         Poland      (CPPh in RESPONS)
  Joanna Kauczor,           Linkoeping University,        Sweden      (Complex polarization propagator (CPP) module)
  Sheela Kirpekar,          Univ. of Southern Denmark,    Denmark     (Mass-velocity & Darwin integrals)
  Erik Kjellgren,           Univ. of Southern Denmark,    Denmark     (MC-srDFT)
  Wim Klopper,              KIT Karlsruhe,                Germany     (R12 code in CC, SIRIUS, and ABACUS modules)
  Stefan Knecht,            ETH Zurich,                   Switzerland (Parallel CI and MCSCF, MC-srDFT)
  Rika Kobayashi,           Australian National Univ.,    Australia   (DIIS in CC, London in MCSCF)
  Henrik Koch,              NTNU,                         Norway      (CC module, Cholesky decomposition)
  Jacob Kongsted,           Univ. of Southern Denmark,    Denmark     (Polarizable embedding, polarizable density embedding, QM/MM)
  Andrea Ligabue,           University of Modena,         Italy       (CTOCD, AOSOPPA)
  Nanna H. List             Univ. of Southern Denmark,    Denmark     (Polarizable embedding)
  Ola B. Lutnaes,           University of Oslo,           Norway      (DFT Hessian)
  Juan I. Melo,             University of Buenos Aires,   Argentina   (LRESC, Relativistic Effects on NMR Shieldings)
  Kurt V. Mikkelsen,        University of Copenhagen,     Denmark     (MC-SCRF and QM/MM)
  Rolf H. Myhre,            NTNU,                         Norway      (Subsystems and CC3)
  Christian Neiss,          Univ. Erlangen-Nuernberg,     Germany     (CCSD(R12))
  Christian B. Nielsen,     University of Copenhagen,     Denmark     (QM/MM)
  Patrick Norman,           KTH Stockholm,                Sweden      (Cubic response and complex frequency response in RESPONS)
  Jeppe Olsen,              Aarhus University,            Denmark     (SIRIUS CI/density modules)
  Jogvan Magnus H. Olsen,   Aarhus University,            Denmark     (Polarizable embedding and polarizable density embedding)
  Anders Osted,             Copenhagen University,        Denmark     (QM/MM)
  Martin J. Packer,         University of Sheffield,      UK          (SOPPA)
  Filip Pawlowski,          Kazimierz Wielki University,  Poland      (CC3)
  Morten N. Pedersen,       Univ. of Southern Denmark,    Denmark     (Polarizable embedding)
  Thomas B. Pedersen,       University of Oslo,           Norway      (Cholesky decomposition)
  Patricio F. Provasi,      University of Northeastern,   Argentina   (Analysis of coupling constants in localized orbitals)
  Peter Reinholdt,          Univ. of Southern Denmark,    Denmark     (Polarizable embedding and polarizable density embedding)
  Zilvinas Rinkevicius,     KTH Stockholm,                Sweden      (open-shell DFT, ESR)
  Elias Rudberg,            KTH Stockholm,                Sweden      (DFT grid and basis info)
  Torgeir A. Ruden,         University of Oslo,           Norway      (Numerical derivatives in ABACUS)
  Kenneth Ruud,             UiT The Arctic U. of Norway,  Norway      (DALTON; ABACUS magnetic properties and much more)
  Pawel Salek,              KTH Stockholm,                Sweden      (DALTON; DFT code)
  Claire C. M. Samson       University of Karlsruhe       Germany     (Boys localization, r12 integrals in ERI)
  Alfredo Sanchez de Meras, University of Valencia,       Spain       (CC module, Cholesky decomposition)
  Trond Saue,               Paul Sabatier University,     France      (direct Fock matrix construction)
  Stephan P. A. Sauer,      University of Copenhagen,     Denmark     (SOPPA(CCSD), SOPPA prop., AOSOPPA, vibrational g-factors)
  Bernd Schimmelpfennig,    Forschungszentrum Karlsruhe,  Germany     (AMFI module)
  Anna K. Schnack-Petersen, University of Copenhagen,     Denmark     (RPA(D) and HRPA(D) properties in AOSOPPA)
  Kristian Sneskov,         Aarhus University,            Denmark     (Polarizable embedding, QM/MM)
  Arnfinn H. Steindal,      UiT The Arctic U. of Norway,  Norway      (parallel QM/MM, polarizable embedding)
  Casper Steinmann,         Aalborg University,           Denmark     (QFIT, polarizable embedding)
  K. O. Sylvester-Hvid,     University of Copenhagen,     Denmark     (MC-SCRF)
  Peter R. Taylor,          VLSCI/Univ. of Melbourne,     Australia   (Symmetry handling ABACUS, integral transformation)
  Andrew M. Teale,          University of Nottingham,     England     (DFT-AC, DFT-D)
  David P. Tew,             University of Bristol,        England     (CCSD(R12))
  Julien Toulouse,          Sorbonne Univ.,               France      (MC-srDFT)
  Olav Vahtras,             KTH Stockholm,                Sweden      (Triplet response, spin-orbit, ESR, TDDFT, open-shell DFT)
  Lucas Visscher,           Vrije Universiteit Amsterdam, Netherlands (Frozen density embedding)
  David J. Wilson,          La Trobe University,          Australia   (DFT Hessian and DFT magnetizabilities)
  Hans Agren,               KTH Stockholm,                Sweden      (SIRIUS module, RESPONS, MC-SCRF solvation)
 --------------------------------------------------------------------------------

     Date and time (Linux)  : Wed May 28 19:54:17 2025
     Host name              : xm009                                   

 * Work memory size             :   131072000 = 1000.00 megabytes.

 * Directories for basis set searches:
   1) /gpfs/projects/rjh/adrian/summer2025/beta_projects/raw_data/NLO/dalton/hf/n16/dipole
   2) /gpfs/projects/rjh/adrian/dalton/build/basis


Compilation information
-----------------------

 Who compiled             | ahurtado
 Host                     | milan2
 System                   | Linux-5.14.0-427.42.1.el9_4.x86_64
 CMake generator          | Unix Makefiles
 Processor                | x86_64
 64-bit integers          | OFF
 MPI                      | ON
 Fortran compiler         | /gpfs/software/openmpi/milan/gcc13.2/4.1.6/bin/mpi
                          | f90
 Fortran compiler version | GNU Fortran (GCC) 13.2.0
 C compiler               | /gpfs/software/openmpi/milan/gcc13.2/4.1.6/bin/mpi
                          | cc
 C compiler version       | gcc (GCC) 13.2.0
 C++ compiler             | /gpfs/software/openmpi/milan/gcc13.2/4.1.6/bin/mpi
                          | cxx
 C++ compiler version     | unknown
 BLAS                     | /gpfs/software/intel/oneAPI/2024_2/mkl/2024.2/lib/
                          | intel64/libmkl_gf_lp64.so;/gpfs/software/intel/one
                          | API/2024_2/mkl/2024.2/lib/intel64/libmkl_sequentia
                          | l.so;/gpfs/software/intel/oneAPI/2024_2/mkl/2024.2
                          | /lib/intel64/libmkl_core.so;/usr/lib64/libpthread.
                          | a;/usr/lib64/libm.so
 LAPACK                   | /gpfs/software/intel/oneAPI/2024_2/mkl/2024.2/lib/
                          | intel64/libmkl_lapack95_lp64.a;/gpfs/software/inte
                          | l/oneAPI/2024_2/mkl/2024.2/lib/intel64/libmkl_gf_l
                          | p64.so
 Static linking           | OFF
 Last Git revision        | 66052b3af5ea7225e31178bf9a8b031913c72190
 Git branch               | (HEAD detached at Dalton2020.0)
 Configuration time       | 2025-04-10 16:02:31.569498

 * MPI parallel run using 576 processes.


   Content of the .dal input file
 ----------------------------------

**DALTON INPUT
.RUN RESPONSE
.DIRECT
**WAVE FUNCTIONS
.HF
**PROPERTIES
**RESPONSE
*QUADRA
.DIPLEN
.FREQUENCIES
2
0.0 0.0149
**END OF DALTON INPUT


   Content of the .mol file
 ----------------------------

BASIS
aug-cc-pVTZ
blah
blah
Atomtype=4 Angstrom Charge=0 Nosymmetry
Charge=6 Atoms=32
C_a 0.5001809983290585 1.7797879992716736 0.0
C_b -0.16220999745438547 2.987646000095475 0.0
C_c 0.49582800246940334 4.2645759993647525 0.0
C_d -0.16915799897858463 5.470992997726178 0.0
C_e 0.48522700069982333 6.749906998777245 0.0
C_f -0.18341200099354546 7.954179998627237 0.0
C_g 0.46579499967845656 9.236000997642712 0.0
C_h -0.20809300072767378 10.43704700077723 0.0
C_i 0.43356600142335505 11.723210999494853 0.0
C_j -0.24802199836574126 12.9192910025971 0.0
C_k 0.38215300104666733 14.212150998067658 0.0
C_l -0.31143800261395815 15.400095002099524 0.0
C_m 0.29939099765736177 16.704016997358508 0.0
C_n -0.41625300058199055 17.876390999153745 0.0
C_o 0.1561239991475072 19.199333999369884 0.0
C_p -0.6175079998522471 20.329543002265773 0.0
C_q 0.4749929992011593 -8.156224001118602 0.0
C_r -0.179651000971239 -6.945319998060691 0.0
C_s 0.4879030022282326 -5.672542997416067 0.0
C_t -0.16915799897858463 -4.462354997583053 0.0
C_u 0.49582800246940334 -3.1886870001017367 0.0
C_v -0.16298399850157194 -1.9791220005988446 0.0
C_w 0.49990900124277404 -0.7046010012045602 0.0
C_x -0.16054399942557732 0.5042449999304224 0.0
C_y 0.41873600059812416 -13.123278000928199 0.0
C_z -0.22421999902094053 -11.909230997453463 0.0
C_{ 0.4541339977464114 -10.639791999027798 0.0
C_| -0.19645800256376092 -9.427784000014126 0.0
C_} 0.23745900210343157 -18.066174997569448 0.0
C_~ -0.3694410002565105 -16.85711999789511 0.0
C_ 0.35629500006879467 -15.605667997448725 0.0
C_ -0.2729060010614268 -14.388457001097214 0.0
Charge=7 Atoms=2
N_a -0.16239899838694838 21.620682002320013 0.0
N_b -0.5410550006299404 -19.300058002407035 0.0
Charge=8 Atoms=2
O_a 0.11924999975613079 -20.345945998225037 0.0
O_b -1.7717919993241475 -19.22771300057939 0.0
Charge=1 Atoms=34
H_a 1.6001719980811484 1.7843189997614541 0.0
H_b -1.2623579987931093 2.9820030024905093 0.0
H_c 1.5958120012069963 4.27142500241638 0.0
H_d -1.2693339990835248 5.462585001569512 0.0
H_e 1.5851840008161278 6.759962000792628 0.0
H_f -1.2836180001545587 7.94185400086163 0.0
H_g 1.5656890012478308 9.250623000073519 0.0
H_h -1.3083209977853345 10.419023997580537 0.0
H_i 1.5333279997375278 11.744488998173237 0.0
H_j -1.3482389991209645 12.892666001586539 0.0
H_k 1.4816050020590574 14.243579001946058 0.0
H_l -1.4115270006936922 15.359170997844007 0.0
H_m 1.397944000673633 16.753083001553975 0.0
H_n -1.515291999948541 17.80723799955263 0.0
H_o 1.2505279988270643 19.295309002073548 0.0
H_p -1.7105979995999896 20.234098002289226 0.0
H_q 0.8283599982620515 21.82069100093003 0.0
H_r -0.8038760006199114 22.39826699741765 0.0
H_s 1.574827997511544 -8.159852997885706 0.0
H_t -1.279722001734038 -6.943320999396752 0.0
H_u 1.5878200018391826 -5.67336700041789 0.0
H_v -1.2692440019153064 -4.46256900213882 0.0
H_w 1.5957889978736484 -3.1876010014629115 0.0
H_x -1.2630859984653722 -1.9810369976723614 0.0
H_y 1.599892999980367 -0.7018710024335741 0.0
H_z -1.260666002287941 0.5006460022193905 0.0
H_{ 1.5180350006035932 -13.14106400152755 0.0
H_| -1.3242000024705929 -11.897244001192556 0.0
H_} 1.5538019983126525 -10.648318001702442 0.0
H_~ -1.2965080002830687 -9.422253997618956 0.0
H_ 1.3141369992957848 -18.246511002564585 0.0
H_ -1.4659360013498532 -16.83678699858777 0.0
H_ 1.4542269977530282 -15.640808999684648 0.0
H_ -1.372507002501025 -14.365893001253232 0.0


       *******************************************************************
       *********** Output from DALTON general input processing ***********
       *******************************************************************

 --------------------------------------------------------------------------------
   Overall default print level:    0
   Print level for DALTON.STAT:    1

    Parallel calculation using MPI
    AO-direct calculation (in sections where implemented)
    HERMIT 1- and 2-electron integral sections will be executed
    "Old" integral transformation used (limited to max 255 basis functions)
    Wave function sections will be executed (SIRIUS module)
    Dynamic molecular response properties section will be executed (RESPONSE module)
 --------------------------------------------------------------------------------


   ****************************************************************************
   *************** Output of molecule and basis set information ***************
   ****************************************************************************


    The two title cards from your ".mol" input:
    ------------------------------------------------------------------------
 1: blah                                                                    
 2: blah                                                                    
    ------------------------------------------------------------------------

  Coordinates are entered in Angstrom and converted to atomic units.
          - Conversion factor : 1 bohr = 0.52917721 A

  Atomic type no.    1
  --------------------
  Nuclear charge:   6.00000
  Number of symmetry independent centers:   32
  Number of basis sets to read;    2
  Basis set file used for this atomic type with Z =   6 :
     "/gpfs/projects/rjh/adrian/dalton/build/basis/aug-cc-pVTZ"

  Atomic type no.    2
  --------------------
  Nuclear charge:   7.00000
  Number of symmetry independent centers:    2
  Number of basis sets to read;    2
  Basis set file used for this atomic type with Z =   7 :
     "/gpfs/projects/rjh/adrian/dalton/build/basis/aug-cc-pVTZ"

  Atomic type no.    3
  --------------------
  Nuclear charge:   8.00000
  Number of symmetry independent centers:    2
  Number of basis sets to read;    2
  Basis set file used for this atomic type with Z =   8 :
     "/gpfs/projects/rjh/adrian/dalton/build/basis/aug-cc-pVTZ"

  Atomic type no.    4
  --------------------
  Nuclear charge:   1.00000
  Number of symmetry independent centers:   34
  Number of basis sets to read;    2
  Basis set file used for this atomic type with Z =   1 :
     "/gpfs/projects/rjh/adrian/dalton/build/basis/aug-cc-pVTZ"


                         SYMGRP: Point group information
                         -------------------------------

@    Point group: C1 


                                 Isotopic Masses
                                 ---------------

                           C_a        12.000000
                           C_b        12.000000
                           C_c        12.000000
                           C_d        12.000000
                           C_e        12.000000
                           C_f        12.000000
                           C_g        12.000000
                           C_h        12.000000
                           C_i        12.000000
                           C_j        12.000000
                           C_k        12.000000
                           C_l        12.000000
                           C_m        12.000000
                           C_n        12.000000
                           C_o        12.000000
                           C_p        12.000000
                           C_q        12.000000
                           C_r        12.000000
                           C_s        12.000000
                           C_t        12.000000
                           C_u        12.000000
                           C_v        12.000000
                           C_w        12.000000
                           C_x        12.000000
                           C_y        12.000000
                           C_z        12.000000
                           C_{        12.000000
                           C_|        12.000000
                           C_}        12.000000
                           C_~        12.000000
                           C_        12.000000
                           C_       12.000000
                           N_a        14.003074
                           N_b        14.003074
                           O_a        15.994915
                           O_b        15.994915
                           H_a         1.007825
                           H_b         1.007825
                           H_c         1.007825
                           H_d         1.007825
                           H_e         1.007825
                           H_f         1.007825
                           H_g         1.007825
                           H_h         1.007825
                           H_i         1.007825
                           H_j         1.007825
                           H_k         1.007825
                           H_l         1.007825
                           H_m         1.007825
                           H_n         1.007825
                           H_o         1.007825
                           H_p         1.007825
                           H_q         1.007825
                           H_r         1.007825
                           H_s         1.007825
                           H_t         1.007825
                           H_u         1.007825
                           H_v         1.007825
                           H_w         1.007825
                           H_x         1.007825
                           H_y         1.007825
                           H_z         1.007825
                           H_{         1.007825
                           H_|         1.007825
                           H_}         1.007825
                           H_~         1.007825
                           H_         1.007825
                           H_        1.007825
                           H_        1.007825
                           H_        1.007825

                       Total mass:   478.262028 amu
                       Natural abundance:  68.986 %

 Center-of-mass coordinates (a.u.):   -0.010137   -0.315204    0.000000
 Center-of-mass coordinates (Angs):   -0.005364   -0.166799    0.000000


  Atoms and basis sets
  --------------------

  Number of atom types :    4
  Total number of atoms:   70

  Basis set used is "aug-cc-pVTZ" from the basis set library.

  label    atoms   charge   prim   cont     basis
  ----------------------------------------------------------------------
  C_         32    6.0000    58    46      [11s6p3d2f|5s4p3d2f]                               
  N_          2    7.0000    58    46      [11s6p3d2f|5s4p3d2f]                               
  O_          2    8.0000    58    46      [11s6p3d2f|5s4p3d2f]                               
  H_         34    1.0000    25    23      [6s3p2d|4s3p2d]                                    
  ----------------------------------------------------------------------
  total:     70  256.0000  2938  2438
  ----------------------------------------------------------------------
  Spherical harmonic basis used.

  Threshold for neglecting AO integrals:  1.00D-12

  Max    interatomic separation is   42.7542 Angstrom (   80.7937 Bohr)
  between atoms   54 and   35, "H_r   " and "O_a   ".

  Min HX interatomic separation is    1.0080 Angstrom (    1.9049 Bohr)

  Min YX interatomic separation is    1.2329 Angstrom (    2.3298 Bohr)


  Bond distances (Angstrom):
  --------------------------

                  atom 1     atom 2       distance
                  ------     ------       --------
  bond distance:  C_b        C_a          1.377564
  bond distance:  C_c        C_b          1.436511
  bond distance:  C_d        C_c          1.377552
  bond distance:  C_e        C_d          1.436607
  bond distance:  C_f        C_e          1.377444
  bond distance:  C_g        C_f          1.436849
  bond distance:  C_h        C_g          1.377184
  bond distance:  C_i        C_h          1.437339
  bond distance:  C_j        C_i          1.376652
  bond distance:  C_k        C_j          1.438265
  bond distance:  C_l        C_k          1.375601
  bond distance:  C_m        C_l          1.439904
  bond distance:  C_n        C_m          1.373538
  bond distance:  C_o        C_n          1.441455
  bond distance:  C_p        C_o          1.369627
  bond distance:  C_r        C_q          1.376535
  bond distance:  C_s        C_r          1.437216
  bond distance:  C_t        C_s          1.377056
  bond distance:  C_u        C_t          1.436815
  bond distance:  C_v        C_u          1.377346
  bond distance:  C_w        C_v          1.436604
  bond distance:  C_x        C_a          1.436512
  bond distance:  C_x        C_w          1.377500
  bond distance:  C_z        C_y          1.373791
  bond distance:  C_{        C_z          1.439319
  bond distance:  C_|        C_q          1.437954
  bond distance:  C_|        C_{          1.375585
  bond distance:  C_~        C_}          1.352827
  bond distance:  C_        C_~          1.446660
  bond distance:  C_       C_y          1.441890
  bond distance:  C_       C_          1.370218
  bond distance:  N_a        C_p          1.369001
  bond distance:  N_b        C_}          1.458956
  bond distance:  O_a        N_b          1.236885
  bond distance:  O_b        N_b          1.232861
  bond distance:  H_a        C_a          1.100000
  bond distance:  H_b        C_b          1.100162
  bond distance:  H_c        C_c          1.100005
  bond distance:  H_d        C_d          1.100208
  bond distance:  H_e        C_e          1.100003
  bond distance:  H_f        C_f          1.100275
  bond distance:  H_g        C_g          1.099991
  bond distance:  H_h        C_h          1.100376
  bond distance:  H_i        C_i          1.099968
  bond distance:  H_j        C_j          1.100539
  bond distance:  H_k        C_k          1.099901
  bond distance:  H_l        C_l          1.100850
  bond distance:  H_m        C_m          1.099648
  bond distance:  H_n        C_n          1.101212
  bond distance:  H_o        C_o          1.098604
  bond distance:  H_p        C_p          1.097249
  bond distance:  H_q        N_a          1.010746
  bond distance:  H_r        N_a          1.008033
  bond distance:  H_s        C_q          1.099841
  bond distance:  H_t        C_r          1.100073
  bond distance:  H_u        C_s          1.099917
  bond distance:  H_v        C_t          1.100086
  bond distance:  H_w        C_u          1.099962
  bond distance:  H_x        C_v          1.100104
  bond distance:  H_y        C_w          1.099987
  bond distance:  H_z        C_x          1.100128
  bond distance:  H_{        C_y          1.099443
  bond distance:  H_|        C_z          1.100045
  bond distance:  H_}        C_{          1.099701
  bond distance:  H_~        C_|          1.100064
  bond distance:  H_        C_}          1.091676
  bond distance:  H_       C_~          1.096684
  bond distance:  H_       C_          1.098494
  bond distance:  H_       C_         1.099832


  Bond angles (degrees):
  ----------------------

                  atom 1     atom 2     atom 3         angle
                  ------     ------     ------         -----
  bond angle:     C_b        C_a        C_x          123.876
  bond angle:     C_b        C_a        H_a          118.504
  bond angle:     C_x        C_a        H_a          117.620
  bond angle:     C_a        C_b        C_c          123.996
  bond angle:     C_a        C_b        H_b          118.447
  bond angle:     C_c        C_b        H_b          117.557
  bond angle:     C_b        C_c        C_d          123.873
  bond angle:     C_b        C_c        H_c          117.620
  bond angle:     C_d        C_c        H_c          118.507
  bond angle:     C_c        C_d        C_e          124.039
  bond angle:     C_c        C_d        H_d          118.426
  bond angle:     C_e        C_d        H_d          117.535
  bond angle:     C_d        C_e        C_f          123.862
  bond angle:     C_d        C_e        H_e          117.621
  bond angle:     C_f        C_e        H_e          118.516
  bond angle:     C_e        C_f        C_g          124.099
  bond angle:     C_e        C_f        H_f          118.398
  bond angle:     C_g        C_f        H_f          117.503
  bond angle:     C_f        C_g        C_h          123.843
  bond angle:     C_f        C_g        H_g          117.623
  bond angle:     C_h        C_g        H_g          118.534
  bond angle:     C_g        C_h        C_i          124.190
  bond angle:     C_g        C_h        H_h          118.358
  bond angle:     C_i        C_h        H_h          117.453
  bond angle:     C_h        C_i        C_j          123.809
  bond angle:     C_h        C_i        H_i          117.623
  bond angle:     C_j        C_i        H_i          118.568
  bond angle:     C_i        C_j        C_k          124.337
  bond angle:     C_i        C_j        H_j          118.290
  bond angle:     C_k        C_j        H_j          117.372
  bond angle:     C_j        C_k        C_l          123.735
  bond angle:     C_j        C_k        H_k          117.623
  bond angle:     C_l        C_k        H_k          118.642
  bond angle:     C_k        C_l        C_m          124.620
  bond angle:     C_k        C_l        H_l          118.148
  bond angle:     C_m        C_l        H_l          117.231
  bond angle:     C_l        C_m        C_n          123.498
  bond angle:     C_l        C_m        H_m          117.658
  bond angle:     C_n        C_m        H_m          118.843
  bond angle:     C_m        C_n        C_o          125.203
  bond angle:     C_m        C_n        H_n          117.800
  bond angle:     C_o        C_n        H_n          116.996
  bond angle:     C_n        C_o        C_p          122.212
  bond angle:     C_n        C_o        H_o          118.408
  bond angle:     C_p        C_o        H_o          119.380
  bond angle:     C_o        C_p        N_a          126.191
  bond angle:     C_o        C_p        H_p          119.402
  bond angle:     N_a        C_p        H_p          114.407
  bond angle:     C_r        C_q        C_|          123.767
  bond angle:     C_r        C_q        H_s          118.586
  bond angle:     C_|        C_q        H_s          117.647
  bond angle:     C_q        C_r        C_s          123.927
  bond angle:     C_q        C_r        H_t          118.501
  bond angle:     C_s        C_r        H_t          117.572
  bond angle:     C_r        C_s        C_t          123.824
  bond angle:     C_r        C_s        H_u          117.633
  bond angle:     C_t        C_s        H_u          118.542
  bond angle:     C_s        C_t        C_u          123.931
  bond angle:     C_s        C_t        H_v          118.488
  bond angle:     C_u        C_t        H_v          117.580
  bond angle:     C_t        C_u        C_v          123.855
  bond angle:     C_t        C_u        H_w          117.626
  bond angle:     C_v        C_u        H_w          118.519
  bond angle:     C_u        C_v        C_w          123.945
  bond angle:     C_u        C_v        H_x          118.476
  bond angle:     C_w        C_v        H_x          117.579
  bond angle:     C_v        C_w        C_x          123.871
  bond angle:     C_v        C_w        H_y          117.622
  bond angle:     C_x        C_w        H_y          118.508
  bond angle:     C_a        C_x        C_w          123.966
  bond angle:     C_a        C_x        H_z          117.571
  bond angle:     C_w        C_x        H_z          118.463
  bond angle:     C_z        C_y        C_         123.430
  bond angle:     C_z        C_y        H_{          118.833
  bond angle:     C_       C_y        H_{          117.737
  bond angle:     C_y        C_z        C_{          123.976
  bond angle:     C_y        C_z        H_|          118.530
  bond angle:     C_{        C_z        H_|          117.494
  bond angle:     C_z        C_{        C_|          123.655
  bond angle:     C_z        C_{        H_}          117.675
  bond angle:     C_|        C_{        H_}          118.671
  bond angle:     C_q        C_|        C_{          123.937
  bond angle:     C_q        C_|        H_~          117.548
  bond angle:     C_{        C_|        H_~          118.514
  bond angle:     C_~        C_}        N_b          121.095
  bond angle:     C_~        C_}        H_          126.163
  bond angle:     N_b        C_}        H_          112.741
  bond angle:     C_}        C_~        C_          123.235
  bond angle:     C_}        C_~        H_         117.717
  bond angle:     C_        C_~        H_         119.048
  bond angle:     C_~        C_        C_         122.555
  bond angle:     C_~        C_        H_         118.277
  bond angle:     C_       C_        H_         119.169
  bond angle:     C_y        C_       C_          124.000
  bond angle:     C_y        C_       H_         117.489
  bond angle:     C_        C_       H_         118.511
  bond angle:     C_p        N_a        H_q          120.830
  bond angle:     C_p        N_a        H_r          121.062
  bond angle:     H_q        N_a        H_r          118.108
  bond angle:     C_}        N_b        O_a          115.485
  bond angle:     C_}        N_b        O_b          118.886
  bond angle:     O_a        N_b        O_b          125.630




 Principal moments of inertia (u*A**2) and principal axes
 --------------------------------------------------------

   IA     171.432298          0.004694    0.999989    0.000000
   IB   80509.102816          0.999989   -0.004694    0.000000
   IC   80680.535114          0.000000    0.000000    1.000000


 Rotational constants
 --------------------

@    The molecule is planar.

               A                   B                   C

           2947.9801              6.2773              6.2640 MHz
            0.098334            0.000209            0.000209 cm-1


@  Nuclear repulsion energy : 2402.763166227178 Hartree


                     .---------------------------------------.
                     | Starting in Integral Section (HERMIT) |
                     `---------------------------------------'



 ***************************************************************************************
 ****************** Output from **INTEGRALS input processing (HERMIT) ******************
 ***************************************************************************************


 - Using defaults, no **INTEGRALS input found

 Default print level:        1

 Calculation of one-electron Hamiltonian integrals.

 Center of mass  (bohr):     -0.010137254706     -0.315203559370      0.000000000000
 Operator center (bohr):      0.000000000000      0.000000000000      0.000000000000
 Gauge origin    (bohr):      0.000000000000      0.000000000000      0.000000000000
 Dipole origin   (bohr):      0.000000000000      0.000000000000      0.000000000000


     ************************************************************************
     ************************** Output from HERINT **************************
     ************************************************************************



                      Nuclear contribution to dipole moments
                      --------------------------------------

                 au               Debye          C m (/(10**-30)

      x      0.00000573         0.00001456         0.00004858
      y     -0.00003204        -0.00008144        -0.00027165
      z      0.00000000         0.00000000         0.00000000


  Time used in ONEDRV     is      10.36 seconds
  Time used in HUCKEL     is       2.11 seconds
  Time used in OVERLAP    is       1.14 seconds
  Time used in POPOVLP    is       2.22 seconds
  Time used in R2         is       1.32 seconds
  Time used in R4         is       1.51 seconds
  Time used in DIPLEN     is       1.98 seconds
  Time used in QUADRUP    is       3.78 seconds
  Time used in KINENE     is       1.71 seconds
  Time used in GABGEN     is      10.54 seconds
  Total CPU  time used in HERMIT:  36.67 seconds
  Total wall time used in HERMIT:  36.86 seconds


                        .----------------------------------.
                        | End of Integral Section (HERMIT) |
                        `----------------------------------'



                   .--------------------------------------------.
                   | Starting in Wave Function Section (SIRIUS) |
                   `--------------------------------------------'



@ Primary orbitals are deleted during canonical orthonormalization
@   because of detected numerical linear dependence or too large coefficients.
@ Eigenvalue threshold for num. lin. dep. =  1.00D-06

@  15 MO components are deleted in symmetry    1
 Overlap eigenvalues of the deleted orbitals:
  9.93D-07  7.98D-07  7.84D-07  7.52D-07  7.21D-07
  6.38D-07  6.18D-07  5.29D-07  4.33D-07  4.05D-07
  3.97D-07  2.74D-07  1.73D-07  8.62D-08  2.34D-08

 Max MO coeff. of last deleted MO & limit:  2.72D+02  1.00D+03

WARNING: Orbitals have been deleted because of numerical
   linear dependence although not requested in input.

 *** Output from Huckel module :

     Using EWMO model:          T
     Using EHT  model:          F
     Number of Huckel orbitals each symmetry:  214

 EWMO - Energy Weighted Maximum Overlap - is a Huckel type method,
        which normally is better than Extended Huckel Theory.
 Reference: Linderberg and Ohrn, Propagators in Quantum Chemistry (Wiley, 1973)

 Huckel EWMO eigenvalues for symmetry :  1
          -20.684753     -20.683498     -15.677080     -15.674960     -11.359424
          -11.359399     -11.359261     -11.359183     -11.359010     -11.358942
          -11.358790     -11.358587     -11.357954     -11.357130     -11.356157
          -11.355081     -11.353950     -11.352816     -11.351738     -11.350820
          -11.348685     -11.348084     -11.347426     -11.346827     -11.346322
          -11.345921     -11.345627     -11.345499     -11.345452     -11.345438
          -11.345358     -11.345333     -11.345247     -11.345243     -11.345177
          -11.345175      -1.964048      -1.793045      -1.791226      -1.787118
           -1.779025      -1.765339      -1.744534      -1.715463      -1.677581
           -1.631034      -1.576629      -1.515853      -1.455458      -1.437679
           -1.377057      -1.305768      -1.233778      -1.213401      -1.199536
           -1.176826      -1.162937      -1.145617      -1.112268      -1.090186
           -1.070489      -1.026119      -1.019550      -0.979364      -0.957800
           -0.931272      -0.901949      -0.882679      -0.853983      -0.852028
           -0.838778      -0.815452      -0.812535      -0.785729      -0.774884
           -0.757769      -0.746552      -0.742390      -0.735337      -0.708623
           -0.694397      -0.683578      -0.678668      -0.667160      -0.651888
           -0.646464      -0.636361      -0.620132      -0.612951      -0.602228
           -0.595175      -0.586070      -0.578106      -0.567260      -0.561696
           -0.544494      -0.544027      -0.536067      -0.529235      -0.516693
           -0.511219      -0.508962      -0.499183      -0.495389      -0.495025
           -0.492473      -0.491242      -0.486876      -0.486183      -0.481864
           -0.481128      -0.479171      -0.477178      -0.476892      -0.474213
           -0.473958      -0.470529      -0.448815      -0.445649      -0.421477
           -0.420523      -0.400134      -0.394580      -0.382597      -0.371179
           -0.369523      -0.361425      -0.350631      -0.336082      -0.309376
           -0.292443      -0.276750      -0.262668      -0.250214      -0.239331
           -0.229930      -0.229151      -0.221908      -0.215151      -0.209542
           -0.204963      -0.201302      -0.200874      -0.198457      -0.196340
           -0.194879      -0.194024      -0.190599      -0.166744      -0.142715
           -0.139033      -0.135856      -0.133867      -0.132308      -0.131663
           -0.131463      -0.130926      -0.130713      -0.129966      -0.129887
           -0.129818      -0.129482      -0.129337      -0.129163      -0.128652
           -0.128479      -0.127859      -0.127739      -0.127183      -0.127078
           -0.126644      -0.126453      -0.126131      -0.125635      -0.125578
           -0.125330      -0.124589      -0.124496      -0.124006      -0.123728
           -0.123590      -0.123197      -0.113035      -0.112625      -0.110390
           -0.109190      -0.107000      -0.105289      -0.103313      -0.101710
           -0.099733      -0.098104      -0.096210      -0.095214      -0.093231
           -0.092666      -0.090991      -0.090294      -0.089229      -0.088337
           -0.087731      -0.086867      -0.086464      -0.085709      -0.085501
           -0.084948      -0.084620      -0.083660      -0.082720      -0.081800
           -0.080927      -0.080166      -0.079601      -0.079329

 **********************************************************************
 *SIRIUS* a direct, restricted step, second order MCSCF program       *
 **********************************************************************

 
     Date and time (Linux)  : Wed May 28 20:09:45 2025
     Host name              : xm009                                   

 Title lines from ".mol" input file:
     blah                                                                    
     blah                                                                    

 Print level on unit LUPRI =   2 is   0
 Print level on unit LUW4  =   2 is   5

@    Restricted, closed shell Hartree-Fock calculation.

@    Time-dependent Hartree-Fock calculation (random phase approximation).
 Fock matrices are calculated directly and in parallel without use of integrals on disk.

 Initial molecular orbitals are obtained according to
 ".MOSTART EWMO  " input option

     Wave function specification
     ============================
@    Wave function type        --- HF ---
@    Number of closed shell electrons         256
@    Number of electrons in active shells       0
@    Total charge of the molecule               0

@    Spin multiplicity and 2 M_S                1         0
@    Total number of symmetries                 1 (point group: C1 )
@    Reference state symmetry                   1 (irrep name : A  )

     Orbital specifications
     ======================
@    Abelian symmetry species          All |    1
@                                          |  A  
                                       --- |  ---
@    Occupied SCF orbitals             128 |  128
@    Secondary orbitals               2295 | 2295
@    Total number of orbitals         2423 | 2423
@    Number of basis functions        2438 | 2438

     Optimization information
     ========================
@    Number of configurations                 1
@    Number of orbital rotations         293760
     ------------------------------------------
@    Total number of variables           293761

     Maximum number of Fock   iterations      0
     Maximum number of DIIS   iterations     60
     Maximum number of QC-SCF iterations     60
     Threshold for SCF convergence     1.00D-05

    INFORMATION: Switched to "new" integral transformation (from 1988 ;-) )
    because more than 255 basis functions.


 ***********************************************
 ***** DIIS acceleration of SCF iterations *****
 ***********************************************

 C1-DIIS algorithm; max error vectors =    8

 Iter      Total energy        Error norm    Delta(E)  DIIS dim.
 -----------------------------------------------------------------------------
   1  Screening settings (-IFTHRS, JTDIIS, DIFDEN, times)  -10    1    T  7.03D+01  7.06D+01
@  1    -1484.88225082        9.13085D+00   -1.48D+03    1
      Virial theorem: -V/T =      2.013080
@    MULPOP   C_a     0.01; C_b     0.05; C_c    -0.02; C_d     0.05; C_e     0.01; C_f     0.06; C_g     0.01; C_h     0.04; C_i    -0.02; C_j     0.05; 
@             C_k    -0.06; C_l    -0.00; C_m    -0.15; C_n    -0.06; C_o    -0.06; C_p     0.32; C_q     0.03; C_r     0.06; C_s     0.03; C_t     0.05; 
@             C_u     0.02; C_v     0.05; C_w    -0.00; C_x     0.03; C_y    -0.01; C_z     0.03; C_{    -0.00; C_|     0.08; C_}     0.20; C_~    -0.04; 
@    MULPOP    dipole moment & components:     41.6615;        2.6626     41.5763      0.0000
   1  Level shift: doubly occupied orbital energies shifted by -2.00D-01
 -----------------------------------------------------------------------------
   2  Screening settings (-IFTHRS, JTDIIS, DIFDEN, times)  -10    2    T  6.93D+01  6.96D+01
@  2    -1489.68890927        3.21514D+00   -4.81D+00    2
      Virial theorem: -V/T =      2.000139
@    MULPOP   C_a    -0.02; C_b    -0.07; C_c    -0.07; C_d    -0.03; C_e    -0.07; C_f    -0.05; C_g    -0.07; C_h    -0.05; C_i    -0.05; C_j    -0.01; 
@             C_k     0.00; C_l     0.05; C_m     0.05; C_n     0.01; C_o     0.16; C_p    -0.53; C_q    -0.11; C_r    -0.06; C_s    -0.07; C_t    -0.07; 
@             C_u    -0.07; C_v    -0.05; C_w    -0.05; C_x    -0.02; C_y    -0.02; C_z    -0.01; C_{    -0.03; C_|    -0.06; C_}    -0.86; C_~     0.23; 
@    MULPOP    dipole moment & components:     14.0984;        0.0095     14.0984      0.0000
   2  Level shift: doubly occupied orbital energies shifted by -1.00D-01
 -----------------------------------------------------------------------------
   3  Screening settings (-IFTHRS, JTDIIS, DIFDEN, times)  -10    3    T  6.58D+01  6.62D+01
@  3    -1490.24047826        1.21555D+00   -5.52D-01    3
      Virial theorem: -V/T =      2.002067
@    MULPOP   C_a    -0.06; C_b    -0.08; C_c    -0.11; C_d    -0.07; C_e    -0.12; C_f    -0.08; C_g    -0.12; C_h    -0.08; C_i    -0.11; C_j    -0.04; 
@             C_k    -0.07; C_l     0.02; C_m    -0.05; C_n     0.04; C_o     0.03; C_p    -0.41; C_q    -0.14; C_r    -0.07; C_s    -0.11; C_t    -0.08; 
@             C_u    -0.12; C_v    -0.08; C_w    -0.08; C_x    -0.06; C_y    -0.03; C_z    -0.03; C_{    -0.07; C_|    -0.09; C_}    -0.61; C_~     0.23; 
@    MULPOP    dipole moment & components:     11.7472;        0.0972     11.7468      0.0000
   3  Level shift: doubly occupied orbital energies shifted by -5.00D-02
 -----------------------------------------------------------------------------
   4  Screening settings (-IFTHRS, JTDIIS, DIFDEN, times)  -10    4    T  6.39D+01  6.42D+01
@  4    -1490.33173040        3.56281D-01   -9.13D-02    4
      Virial theorem: -V/T =      2.003472
@    MULPOP   C_a    -0.07; C_b    -0.09; C_c    -0.11; C_d    -0.08; C_e    -0.13; C_f    -0.09; C_g    -0.14; C_h    -0.09; C_i    -0.12; C_j    -0.05; 
@             C_k    -0.08; C_l     0.02; C_m    -0.05; C_n     0.04; C_o    -0.00; C_p    -0.39; C_q    -0.15; C_r    -0.07; C_s    -0.13; C_t    -0.08; 
@             C_u    -0.12; C_v    -0.08; C_w    -0.09; C_x    -0.06; C_y    -0.05; C_z    -0.03; C_{    -0.08; C_|    -0.08; C_}    -0.68; C_~     0.20; 
@    MULPOP    dipole moment & components:      9.8227;       -0.1060      9.8221      0.0000
   4  Level shift: doubly occupied orbital energies shifted by -2.50D-02
 -----------------------------------------------------------------------------
   5  Screening settings (-IFTHRS, JTDIIS, DIFDEN, times)  -14    5    F  8.47D+01  8.52D+01
@  5    -1490.35101596        1.49921D-01   -1.93D-02    5
      Virial theorem: -V/T =      2.002759
@    MULPOP   C_a    -0.08; C_b    -0.10; C_c    -0.12; C_d    -0.09; C_e    -0.14; C_f    -0.10; C_g    -0.14; C_h    -0.10; C_i    -0.13; C_j    -0.06; 
@             C_k    -0.09; C_l     0.01; C_m    -0.06; C_n     0.03; C_o    -0.01; C_p    -0.41; C_q    -0.16; C_r    -0.09; C_s    -0.14; C_t    -0.09; 
@             C_u    -0.13; C_v    -0.09; C_w    -0.10; C_x    -0.07; C_y    -0.07; C_z    -0.05; C_{    -0.10; C_|    -0.10; C_}    -0.67; C_~     0.19; 
@    MULPOP    dipole moment & components:      8.7975;       -0.2785      8.7930      0.0000
   5  Level shift: doubly occupied orbital energies shifted by -1.25D-02
 -----------------------------------------------------------------------------
   6  Screening settings (-IFTHRS, JTDIIS, DIFDEN, times)  -14    6    T  7.90D+01  7.94D+01
@  6    -1490.35702196        8.10290D-02   -6.01D-03    6
      Virial theorem: -V/T =      2.002643
@    MULPOP   C_a    -0.08; C_b    -0.10; C_c    -0.12; C_d    -0.09; C_e    -0.14; C_f    -0.10; C_g    -0.15; C_h    -0.10; C_i    -0.13; C_j    -0.06; 
@             C_k    -0.09; C_l     0.01; C_m    -0.07; C_n     0.03; C_o    -0.01; C_p    -0.41; C_q    -0.16; C_r    -0.09; C_s    -0.14; C_t    -0.09; 
@             C_u    -0.13; C_v    -0.09; C_w    -0.10; C_x    -0.07; C_y    -0.07; C_z    -0.04; C_{    -0.10; C_|    -0.10; C_}    -0.68; C_~     0.19; 
@    MULPOP    dipole moment & components:      8.1747;       -0.2752      8.1701      0.0000
   6  Level shift: doubly occupied orbital energies shifted by -1.25D-02
 -----------------------------------------------------------------------------
   7  Screening settings (-IFTHRS, JTDIIS, DIFDEN, times)  -14    7    T  7.74D+01  7.78D+01
@  7    -1490.35917535        3.95484D-02   -2.15D-03    7
      Virial theorem: -V/T =      2.002672
@    MULPOP   C_a    -0.08; C_b    -0.10; C_c    -0.12; C_d    -0.09; C_e    -0.14; C_f    -0.10; C_g    -0.15; C_h    -0.10; C_i    -0.13; C_j    -0.07; 
@             C_k    -0.09; C_l     0.01; C_m    -0.06; C_n     0.03; C_o    -0.01; C_p    -0.41; C_q    -0.16; C_r    -0.09; C_s    -0.14; C_t    -0.09; 
@             C_u    -0.13; C_v    -0.09; C_w    -0.10; C_x    -0.07; C_y    -0.07; C_z    -0.04; C_{    -0.10; C_|    -0.10; C_}    -0.68; C_~     0.19; 
@    MULPOP    dipole moment & components:      7.7623;       -0.3307      7.7552      0.0000
 -----------------------------------------------------------------------------
   8  Screening settings (-IFTHRS, JTDIIS, DIFDEN, times)  -14    8    T  7.67D+01  7.70D+01
@  8    -1490.35975073        1.74964D-02   -5.75D-04    8
      Virial theorem: -V/T =      2.002663
@    MULPOP   C_a    -0.08; C_b    -0.10; C_c    -0.12; C_d    -0.09; C_e    -0.13; C_f    -0.10; C_g    -0.14; C_h    -0.10; C_i    -0.13; C_j    -0.07; 
@             C_k    -0.09; C_l     0.01; C_m    -0.06; C_n     0.02; C_o    -0.01; C_p    -0.41; C_q    -0.16; C_r    -0.09; C_s    -0.14; C_t    -0.09; 
@             C_u    -0.13; C_v    -0.09; C_w    -0.10; C_x    -0.07; C_y    -0.07; C_z    -0.04; C_{    -0.10; C_|    -0.10; C_}    -0.68; C_~     0.19; 
@    MULPOP    dipole moment & components:      7.3847;       -0.3070      7.3783      0.0000
 -----------------------------------------------------------------------------
   9  Screening settings (-IFTHRS, JTDIIS, DIFDEN, times)  -14    9    T  7.47D+01  7.51D+01
@  9    -1490.35982665        7.07918D-03   -7.59D-05    8
      Virial theorem: -V/T =      2.002656
@    MULPOP   C_a    -0.08; C_b    -0.10; C_c    -0.12; C_d    -0.09; C_e    -0.13; C_f    -0.10; C_g    -0.14; C_h    -0.10; C_i    -0.13; C_j    -0.07; 
@             C_k    -0.09; C_l     0.01; C_m    -0.06; C_n     0.02; C_o    -0.01; C_p    -0.41; C_q    -0.16; C_r    -0.09; C_s    -0.14; C_t    -0.09; 
@             C_u    -0.13; C_v    -0.09; C_w    -0.09; C_x    -0.07; C_y    -0.07; C_z    -0.04; C_{    -0.10; C_|    -0.10; C_}    -0.68; C_~     0.19; 
@    MULPOP    dipole moment & components:      7.2126;       -0.2941      7.2066      0.0000
 -----------------------------------------------------------------------------
  10  Screening settings (-IFTHRS, JTDIIS, DIFDEN, times)  -14   10    T  7.38D+01  7.42D+01
@ 10    -1490.35984875        4.43954D-03   -2.21D-05    8
      Virial theorem: -V/T =      2.002657
@    MULPOP   C_a    -0.08; C_b    -0.10; C_c    -0.12; C_d    -0.09; C_e    -0.13; C_f    -0.10; C_g    -0.14; C_h    -0.11; C_i    -0.13; C_j    -0.07; 
@             C_k    -0.09; C_l     0.01; C_m    -0.06; C_n     0.02; C_o    -0.01; C_p    -0.41; C_q    -0.16; C_r    -0.09; C_s    -0.14; C_t    -0.09; 
@             C_u    -0.13; C_v    -0.09; C_w    -0.09; C_x    -0.07; C_y    -0.07; C_z    -0.04; C_{    -0.10; C_|    -0.10; C_}    -0.68; C_~     0.19; 
@    MULPOP    dipole moment & components:      7.0677;       -0.2672      7.0626      0.0000
 -----------------------------------------------------------------------------
  11  Screening settings (-IFTHRS, JTDIIS, DIFDEN, times)  -14   11    T  7.26D+01  7.28D+01
@ 11    -1490.35985954        2.89108D-03   -1.08D-05    8
      Virial theorem: -V/T =      2.002658
@    MULPOP   C_a    -0.08; C_b    -0.10; C_c    -0.12; C_d    -0.09; C_e    -0.13; C_f    -0.10; C_g    -0.14; C_h    -0.11; C_i    -0.13; C_j    -0.07; 
@             C_k    -0.09; C_l     0.01; C_m    -0.06; C_n     0.02; C_o    -0.01; C_p    -0.41; C_q    -0.16; C_r    -0.09; C_s    -0.14; C_t    -0.09; 
@             C_u    -0.13; C_v    -0.09; C_w    -0.09; C_x    -0.07; C_y    -0.07; C_z    -0.04; C_{    -0.10; C_|    -0.10; C_}    -0.68; C_~     0.19; 
@    MULPOP    dipole moment & components:      6.9487;       -0.2438      6.9444      0.0000
 -----------------------------------------------------------------------------
  12  Screening settings (-IFTHRS, JTDIIS, DIFDEN, times)  -14   12    T  7.25D+01  7.29D+01
@ 12    -1490.35986539        1.16837D-03   -5.84D-06    8
      Virial theorem: -V/T =      2.002656
@    MULPOP   C_a    -0.08; C_b    -0.10; C_c    -0.12; C_d    -0.09; C_e    -0.13; C_f    -0.10; C_g    -0.14; C_h    -0.11; C_i    -0.13; C_j    -0.07; 
@             C_k    -0.09; C_l     0.01; C_m    -0.06; C_n     0.02; C_o    -0.01; C_p    -0.42; C_q    -0.16; C_r    -0.09; C_s    -0.13; C_t    -0.09; 
@             C_u    -0.13; C_v    -0.10; C_w    -0.09; C_x    -0.08; C_y    -0.07; C_z    -0.04; C_{    -0.10; C_|    -0.10; C_}    -0.68; C_~     0.19; 
@    MULPOP    dipole moment & components:      6.8236;       -0.2181      6.8202      0.0000
 -----------------------------------------------------------------------------
  13  Screening settings (-IFTHRS, JTDIIS, DIFDEN, times)  -14   13    T  7.09D+01  7.14D+01
@ 13    -1490.35986629        5.01389D-04   -9.06D-07    8
      Virial theorem: -V/T =      2.002657
@    MULPOP   C_a    -0.08; C_b    -0.10; C_c    -0.12; C_d    -0.09; C_e    -0.13; C_f    -0.10; C_g    -0.14; C_h    -0.11; C_i    -0.13; C_j    -0.07; 
@             C_k    -0.09; C_l     0.01; C_m    -0.06; C_n     0.02; C_o    -0.01; C_p    -0.42; C_q    -0.16; C_r    -0.09; C_s    -0.13; C_t    -0.09; 
@             C_u    -0.13; C_v    -0.10; C_w    -0.09; C_x    -0.08; C_y    -0.07; C_z    -0.04; C_{    -0.10; C_|    -0.10; C_}    -0.68; C_~     0.19; 
@    MULPOP    dipole moment & components:      6.7701;       -0.2069      6.7669      0.0000
 -----------------------------------------------------------------------------
  14  Screening settings (-IFTHRS, JTDIIS, DIFDEN, times)  -14   14    T  6.82D+01  6.86D+01
@ 14    -1490.35986638        2.51665D-04   -8.70D-08    8
      Virial theorem: -V/T =      2.002656
@    MULPOP   C_a    -0.08; C_b    -0.10; C_c    -0.12; C_d    -0.09; C_e    -0.13; C_f    -0.10; C_g    -0.14; C_h    -0.11; C_i    -0.13; C_j    -0.07; 
@             C_k    -0.09; C_l     0.01; C_m    -0.06; C_n     0.02; C_o    -0.01; C_p    -0.42; C_q    -0.16; C_r    -0.09; C_s    -0.13; C_t    -0.09; 
@             C_u    -0.13; C_v    -0.10; C_w    -0.09; C_x    -0.08; C_y    -0.07; C_z    -0.04; C_{    -0.10; C_|    -0.10; C_}    -0.68; C_~     0.19; 
@    MULPOP    dipole moment & components:      6.7574;       -0.2043      6.7543      0.0000
 -----------------------------------------------------------------------------
  15  Screening settings (-IFTHRS, JTDIIS, DIFDEN, times)  -14   15    T  6.66D+01  6.70D+01
@ 15    -1490.35986640        1.20397D-04   -1.85D-08    8
      Virial theorem: -V/T =      2.002657
@    MULPOP   C_a    -0.08; C_b    -0.10; C_c    -0.12; C_d    -0.09; C_e    -0.13; C_f    -0.10; C_g    -0.14; C_h    -0.11; C_i    -0.13; C_j    -0.07; 
@             C_k    -0.09; C_l     0.01; C_m    -0.06; C_n     0.02; C_o    -0.01; C_p    -0.42; C_q    -0.16; C_r    -0.09; C_s    -0.13; C_t    -0.09; 
@             C_u    -0.13; C_v    -0.10; C_w    -0.09; C_x    -0.08; C_y    -0.07; C_z    -0.04; C_{    -0.10; C_|    -0.10; C_}    -0.68; C_~     0.19; 
@    MULPOP    dipole moment & components:      6.7523;       -0.2032      6.7493      0.0000
 -----------------------------------------------------------------------------
  16  Screening settings (-IFTHRS, JTDIIS, DIFDEN, times)  -14   16    T  6.41D+01  6.44D+01
@ 16    -1490.35986640        5.61342D-05   -2.79D-09    8
      Virial theorem: -V/T =      2.002657
@    MULPOP   C_a    -0.08; C_b    -0.10; C_c    -0.12; C_d    -0.09; C_e    -0.13; C_f    -0.10; C_g    -0.14; C_h    -0.11; C_i    -0.13; C_j    -0.07; 
@             C_k    -0.09; C_l     0.01; C_m    -0.06; C_n     0.02; C_o    -0.01; C_p    -0.42; C_q    -0.16; C_r    -0.09; C_s    -0.13; C_t    -0.09; 
@             C_u    -0.13; C_v    -0.10; C_w    -0.09; C_x    -0.08; C_y    -0.07; C_z    -0.04; C_{    -0.10; C_|    -0.10; C_}    -0.68; C_~     0.19; 
@    MULPOP    dipole moment & components:      6.7514;       -0.2031      6.7483      0.0000
 -----------------------------------------------------------------------------
  17  Screening settings (-IFTHRS, JTDIIS, DIFDEN, times)  -14   17    T  6.37D+01  6.39D+01
@ 17    -1490.35986640        3.86038D-05   -1.05D-09    8
      Virial theorem: -V/T =      2.002657
@    MULPOP   C_a    -0.08; C_b    -0.10; C_c    -0.12; C_d    -0.09; C_e    -0.13; C_f    -0.10; C_g    -0.14; C_h    -0.11; C_i    -0.13; C_j    -0.07; 
@             C_k    -0.09; C_l     0.01; C_m    -0.06; C_n     0.02; C_o    -0.01; C_p    -0.42; C_q    -0.16; C_r    -0.09; C_s    -0.13; C_t    -0.09; 
@             C_u    -0.13; C_v    -0.10; C_w    -0.09; C_x    -0.08; C_y    -0.07; C_z    -0.04; C_{    -0.10; C_|    -0.10; C_}    -0.68; C_~     0.19; 
@    MULPOP    dipole moment & components:      6.7509;       -0.2030      6.7478      0.0000
 -----------------------------------------------------------------------------
  18  Screening settings (-IFTHRS, JTDIIS, DIFDEN, times)  -14   18    T  6.32D+01  6.36D+01
@ 18    -1490.35986640        1.80988D-05   -3.97D-10    8
      Virial theorem: -V/T =      2.002657
@    MULPOP   C_a    -0.08; C_b    -0.10; C_c    -0.12; C_d    -0.09; C_e    -0.13; C_f    -0.10; C_g    -0.14; C_h    -0.11; C_i    -0.13; C_j    -0.07; 
@             C_k    -0.09; C_l     0.01; C_m    -0.06; C_n     0.02; C_o    -0.01; C_p    -0.42; C_q    -0.16; C_r    -0.09; C_s    -0.13; C_t    -0.09; 
@             C_u    -0.13; C_v    -0.10; C_w    -0.09; C_x    -0.08; C_y    -0.07; C_z    -0.04; C_{    -0.10; C_|    -0.10; C_}    -0.68; C_~     0.19; 
@    MULPOP    dipole moment & components:      6.7506;       -0.2030      6.7475      0.0000
 -----------------------------------------------------------------------------
  19  Screening settings (-IFTHRS, JTDIIS, DIFDEN, times)  -14   19    T  6.30D+01  6.34D+01
@ 19    -1490.35986640        7.61432D-06   -9.82D-11    8

@ *** DIIS converged in  19 iterations !
@     Converged SCF energy, gradient:  -1490.359866401002    7.61D-06
    - total time used in SIRFCK :              0.00 seconds


 *** SCF orbital energy analysis ***

 Only the 20 lowest virtual orbital energies printed in each symmetry.

 Number of electrons :  256
 Orbital occupations :  128

 Sym       Hartree-Fock orbital energies

1 A     -20.58897555   -20.58607598   -15.83922651   -15.58988948   -11.29958796
        -11.29126701   -11.28968561   -11.27999883   -11.27207973   -11.26638271
        -11.26201518   -11.26186110   -11.25855277   -11.25786472   -11.25572569
        -11.25557536   -11.25339495   -11.25334426   -11.25136451   -11.25126912
        -11.24944929   -11.24939545   -11.24910117   -11.24764599   -11.24758308
        -11.24598678   -11.24568778   -11.24451664   -11.24394449   -11.24366988
        -11.24141636   -11.23878182   -11.23557087   -11.23155556   -11.22690998
        -11.22454343    -1.57925925    -1.37720337    -1.23469996    -1.14524939
         -1.13155674    -1.12390782    -1.11755871    -1.11111265    -1.10364343
         -1.09454734    -1.08377293    -1.07141722    -1.05756449    -1.04228360
         -1.02563876    -1.00769863    -0.98854920    -0.96834832    -0.94811036
         -0.93539195    -0.89596280    -0.87353253    -0.85085319    -0.82877474
         -0.80889839    -0.79332582    -0.78672797    -0.78000501    -0.77522349
         -0.77005167    -0.76588532    -0.76310888    -0.75714134    -0.75508499
         -0.74660161    -0.74508815    -0.73640912    -0.71454994    -0.71297528
         -0.69704274    -0.67830917    -0.67615723    -0.67345590    -0.66212870
         -0.65759767    -0.64868843    -0.64047681    -0.63227391    -0.62520311
         -0.61223954    -0.61020379    -0.60022545    -0.58979166    -0.58514926
         -0.57413710    -0.56874414    -0.56285819    -0.55316576    -0.55162485
         -0.54425553    -0.53801229    -0.53664795    -0.53022299    -0.52582138
         -0.52474622    -0.52246037    -0.52003200    -0.51584138    -0.51194133
         -0.50820892    -0.50440455    -0.50151057    -0.50033953    -0.49431103
         -0.49097144    -0.48333298    -0.48174851    -0.47940759    -0.47503092
         -0.46468046    -0.45193545    -0.44021167    -0.43673728    -0.41930402
         -0.39954264    -0.37753905    -0.35338999    -0.32729080    -0.29964441
         -0.27126821    -0.24371329    -0.21896461     0.00022892     0.01684545
          0.02205769     0.02394431     0.02469197     0.02513355     0.02714679
          0.02739474     0.03123754     0.03191959     0.03420962     0.03736618
          0.03985012     0.04377618     0.04632933     0.05100755     0.05162675
          0.05407902     0.05891751     0.06287288

    E(LUMO) :     0.00022892 au (symmetry 1)
  - E(HOMO) :    -0.21896461 au (symmetry 1)
  ------------------------------------------
    gap     :     0.21919354 au

 --- Writing SIRIFC interface file

 CPU and wall time for SCF :    3656.600    3675.732


                       .-----------------------------------.
                       | --- Final results from SIRIUS --- |
                       `-----------------------------------'


@    Spin multiplicity:           1
@    Spatial symmetry:            1 ( irrep  A   in C1  )
@    Total charge of molecule:    0

@    Final HF energy:           -1490.359866401002                 
@    Nuclear repulsion:          2402.763166227178
@    Electronic energy:         -3893.123032628180

@    Final gradient norm:           0.000007614319

 
     Date and time (Linux)  : Wed May 28 21:11:32 2025
     Host name              : xm009                                   

File label for MO orbitals:  28May25   FOCKDIIS

 (Only coefficients > 0.0100 are printed.)

 Molecular orbitals for symmetry species 1  (A  )
 ------------------------------------------------

    Orbital       119      120      121      122      123      124      125
   8 C_a :2pz   -0.0131  -0.1967   0.0089  -0.1977   0.0188  -0.1979   0.0434
  17 C_a :2pz   -0.0007  -0.0049   0.0011  -0.0076   0.0019  -0.0122   0.0047
  24 C_a :3d1-  -0.0072  -0.0025   0.0104  -0.0033   0.0129  -0.0041   0.0148
  29 C_a :3d1-   0.0122  -0.0020  -0.0067   0.0013  -0.0029  -0.0018   0.0007
  54 C_b :2pz   -0.1079  -0.1576   0.1243  -0.1424   0.1436  -0.1225   0.1601
  63 C_b :2pz   -0.0019  -0.0041   0.0030  -0.0060   0.0062  -0.0081   0.0134
  70 C_b :3d1-  -0.0047   0.0076   0.0061   0.0112   0.0052   0.0147   0.0017
  75 C_b :3d1-   0.0103  -0.0075  -0.0045  -0.0022  -0.0022  -0.0008  -0.0013
 100 C_c :2pz   -0.1934  -0.0028   0.1954   0.0733   0.1652   0.1477   0.0950
 116 C_c :3d1-  -0.0037   0.0085   0.0015   0.0121  -0.0030   0.0133  -0.0084
 121 C_c :3d1-   0.0032  -0.0114   0.0016  -0.0033   0.0013  -0.0010   0.0007
 146 C_d :2pz   -0.1852   0.1055   0.1348   0.1719   0.0478   0.1960  -0.0489
 155 C_d :2pz   -0.0039   0.0020   0.0046   0.0059   0.0032   0.0123  -0.0038
 162 C_d :3d1-   0.0047   0.0060  -0.0099   0.0023  -0.0139  -0.0063  -0.0119
 192 C_e :2pz   -0.0876   0.1986  -0.0563   0.1554  -0.1770   0.0141  -0.1889
 201 C_e :2pz   -0.0014   0.0050  -0.0026   0.0052  -0.0088   0.0002  -0.0147
 208 C_e :3d1-   0.0051   0.0035  -0.0105  -0.0041  -0.0100  -0.0128  -0.0021
 238 C_f :2pz    0.0098   0.1754  -0.1571   0.0398  -0.1909  -0.1232  -0.0875
 254 C_f :3d1-   0.0070  -0.0067  -0.0037  -0.0124   0.0078  -0.0070   0.0163
 284 C_g :2pz    0.1464   0.0382  -0.1862  -0.1652  -0.0024  -0.1678   0.1891
 290 C_g :2pz    0.0028  -0.0044   0.0002  -0.0061   0.0055  -0.0034   0.0107
 293 C_g :2pz    0.0034   0.0001  -0.0050  -0.0064   0.0006  -0.0098   0.0150
 300 C_g :3d1-   0.0064  -0.0078   0.0008  -0.0095   0.0123   0.0025   0.0116
 330 C_h :2pz    0.1929  -0.0732  -0.1049  -0.1968   0.1289  -0.0450   0.1815
 339 C_h :2pz    0.0038  -0.0011  -0.0037  -0.0073   0.0056  -0.0028   0.0141
 346 C_h :3d1-  -0.0004  -0.0073   0.0106   0.0049   0.0067   0.0149  -0.0124
 376 C_i :2pz    0.1782  -0.1932   0.0899  -0.0661   0.1824   0.1919  -0.0907
 385 C_i :2pz    0.0033  -0.0046   0.0030  -0.0019   0.0082   0.0115  -0.0071
 392 C_i :3d1-  -0.0009  -0.0051   0.0102   0.0094  -0.0013   0.0095  -0.0151
 397 C_i :3d1-   0.0108  -0.0005  -0.0043  -0.0024  -0.0003  -0.0011  -0.0005
 422 C_j :2pz    0.1110  -0.1943   0.1761   0.0674   0.0763   0.1794  -0.1824
 431 C_j :2pz    0.0025  -0.0049   0.0050   0.0021   0.0036   0.0102  -0.0134
 438 C_j :3d1-  -0.0068   0.0046   0.0022   0.0100  -0.0140  -0.0112   0.0020
 443 C_j :3d1-   0.0162  -0.0073   0.0002  -0.0019   0.0008  -0.0019   0.0025
 468 C_k :2pz   -0.0313  -0.0894   0.1773   0.2035  -0.1598  -0.0610  -0.0592
 484 C_k :3d1-  -0.0062   0.0058  -0.0020   0.0046  -0.0111  -0.0140   0.0108
 489 C_k :3d1-   0.0194  -0.0146   0.0078   0.0031  -0.0009  -0.0013   0.0011
 514 C_l :2pz   -0.1202   0.0207   0.0833   0.1636  -0.1966  -0.1696   0.0863
 530 C_l :3d1-  -0.0038   0.0081  -0.0106  -0.0097   0.0052  -0.0020   0.0099
 535 C_l :3d1-   0.0182  -0.0163   0.0118   0.0071  -0.0026  -0.0001  -0.0002
 560 C_m :2pz   -0.2039   0.1706  -0.1112  -0.0348  -0.0479  -0.1244   0.1818
 566 C_m :2pz   -0.0001   0.0022  -0.0038  -0.0036   0.0007  -0.0047   0.0112
 569 C_m :2pz   -0.0045   0.0046  -0.0038  -0.0016  -0.0025  -0.0088   0.0168
 576 C_m :3d1-  -0.0025   0.0056  -0.0087  -0.0106   0.0100   0.0066  -0.0005
 581 C_m :3d1-   0.0104  -0.0126   0.0118   0.0095  -0.0063  -0.0038   0.0028
 606 C_n :2pz   -0.1958   0.2004  -0.1842  -0.1476   0.0923   0.0226   0.0535
 622 C_n :3d1-   0.0054  -0.0035   0.0001  -0.0041   0.0088   0.0130  -0.0161
 627 C_n :3d1-   0.0072  -0.0098   0.0108   0.0109  -0.0094  -0.0066   0.0025
 652 C_o :2pz   -0.1090   0.1387  -0.1656  -0.1884   0.2053   0.2141  -0.2129
 658 C_o :2pz    0.0011   0.0002  -0.0026  -0.0060   0.0099   0.0137  -0.0166
 661 C_o :2pz   -0.0020   0.0033  -0.0051  -0.0076   0.0107   0.0146  -0.0191
 698 C_p :2pz   -0.0001   0.0193  -0.0419  -0.0668   0.0931   0.1192  -0.1424
 714 C_p :3d1-   0.0101  -0.0123   0.0142   0.0158  -0.0171  -0.0179   0.0180
 744 C_q :2pz   -0.1420  -0.1915  -0.1159  -0.0424  -0.1762   0.1819   0.0415
 753 C_q :2pz   -0.0040  -0.0051  -0.0031  -0.0026  -0.0094   0.0114   0.0012
 760 C_q :3d1-  -0.0070  -0.0023   0.0061  -0.0121  -0.0103   0.0004  -0.0112
 790 C_r :2pz   -0.1844  -0.1445   0.0040  -0.1525  -0.1859   0.0750  -0.0952
 806 C_r :3d1-   0.0012   0.0085   0.0109  -0.0039   0.0087  -0.0157  -0.0081
 836 C_s :2pz   -0.1468   0.0222   0.1764  -0.1625   0.0166  -0.1836  -0.1541
 845 C_s :2pz   -0.0026   0.0013   0.0061  -0.0062   0.0014  -0.0119  -0.0114
 852 C_s :3d1-   0.0026   0.0092   0.0076   0.0031   0.0129  -0.0111   0.0024
 857 C_s :3d1-  -0.0082  -0.0106  -0.0044  -0.0005  -0.0014  -0.0019  -0.0022
 882 C_t :2pz   -0.0623   0.1260   0.1877  -0.0521   0.1409  -0.1829  -0.0272
 891 C_t :2pz   -0.0020   0.0026   0.0060  -0.0029   0.0063  -0.0121  -0.0036
 898 C_t :3d1-   0.0082   0.0051  -0.0058   0.0129   0.0052   0.0109   0.0153
 903 C_t :3d1-  -0.0109  -0.0079   0.0009  -0.0026  -0.0010  -0.0000   0.0012
 928 C_u :2pz    0.0932   0.1934   0.0505   0.1610   0.1607   0.0618   0.2016
 937 C_u :2pz    0.0024   0.0049   0.0008   0.0070   0.0079   0.0044   0.0164
 944 C_u :3d1-   0.0076   0.0019  -0.0091   0.0101  -0.0032   0.0145   0.0075
 949 C_u :3d1-  -0.0104  -0.0013   0.0055  -0.0014   0.0023  -0.0015   0.0018
 974 C_v :2pz    0.1649   0.1463  -0.0737   0.1931   0.0412   0.1699   0.1412
 983 C_v :2pz    0.0034   0.0041  -0.0015   0.0074   0.0027   0.0108   0.0132
 990 C_v :3d1-   0.0016  -0.0083  -0.0087  -0.0052  -0.0140   0.0011  -0.0159
1020 C_w :2pz    0.1851  -0.0173  -0.1956   0.0524  -0.1814   0.1043  -0.1596
1026 C_w :2pz   -0.0005  -0.0051  -0.0029  -0.0046  -0.0077  -0.0004  -0.0105
1029 C_w :2pz    0.0038  -0.0012  -0.0062   0.0011  -0.0095   0.0060  -0.0138
1036 C_w :3d1-   0.0003  -0.0091  -0.0044  -0.0100  -0.0096  -0.0081  -0.0144
1066 C_x :2pz    0.1305  -0.1222  -0.1659  -0.0807  -0.1855  -0.0385  -0.1950
1075 C_x :2pz    0.0030  -0.0026  -0.0053  -0.0022  -0.0091  -0.0020  -0.0170
1082 C_x :3d1-  -0.0072  -0.0054   0.0085  -0.0092   0.0089  -0.0124   0.0093
1112 C_y :2pz    0.1632   0.1900   0.1726  -0.1106  -0.0139  -0.0947  -0.1830
1118 C_y :2pz    0.0042   0.0029   0.0010   0.0018   0.0054  -0.0097  -0.0139
1121 C_y :2pz    0.0036   0.0053   0.0058  -0.0045  -0.0006  -0.0066  -0.0169
1128 C_y :3d1-   0.0060   0.0034  -0.0013   0.0069   0.0118  -0.0144  -0.0138
1158 C_z :2pz    0.1816   0.1537   0.0805   0.0184   0.1143  -0.1774  -0.1884
1167 C_z :2pz    0.0035   0.0045   0.0033   0.0001   0.0059  -0.0128  -0.0189
1174 C_z :3d1-  -0.0035  -0.0085  -0.0122   0.0122   0.0073   0.0019   0.0124
1204 C_{ :2pz    0.1043  -0.0096  -0.1260   0.1925   0.1716  -0.0629   0.0876
1220 C_{ :3d1-  -0.0049  -0.0093  -0.0104   0.0065  -0.0015   0.0101   0.0153
1250 C_| :2pz    0.0057  -0.1159  -0.1854   0.1647   0.0599   0.0772   0.1760
1259 C_| :2pz    0.0009  -0.0024  -0.0055   0.0066   0.0031   0.0054   0.0162
1266 C_| :3d1-  -0.0084  -0.0058   0.0014  -0.0101  -0.0145   0.0100  -0.0026
1296 C_} :2pz   -0.1749  -0.1899  -0.2019   0.2095   0.2108  -0.2031  -0.1834
1302 C_} :2pz   -0.0018  -0.0041  -0.0056   0.0074   0.0091  -0.0107  -0.0115
1305 C_} :2pz   -0.0026  -0.0050  -0.0062   0.0075   0.0091  -0.0108  -0.0122
1342 C_~ :2pz   -0.1712  -0.1675  -0.1558   0.1371   0.1122  -0.0828  -0.0519
1358 C_~ :3d1-   0.0045   0.0072   0.0101  -0.0131  -0.0157   0.0173   0.0174
1388 C_ :2pz   -0.0777  -0.0244   0.0365  -0.0994  -0.1565   0.1982   0.2141
1394 C_ :2pz    0.0028   0.0030   0.0047  -0.0066  -0.0088   0.0109   0.0125
1397 C_ :2pz   -0.0012  -0.0003   0.0013  -0.0037  -0.0072   0.0117   0.0168
1404 C_ :3d1-   0.0052   0.0080   0.0103  -0.0117  -0.0117   0.0103   0.0078
1409 C_ :3d1-  -0.0145  -0.0134  -0.0113   0.0090   0.0061  -0.0034  -0.0010
1434 C_:2pz    0.0237   0.0850   0.1375  -0.1735  -0.1863   0.1732   0.1371
1440 C_:2pz   -0.0026  -0.0023  -0.0009  -0.0020  -0.0059   0.0092   0.0106
1443 C_:2pz    0.0014   0.0018   0.0040  -0.0071  -0.0106   0.0137   0.0159
1450 C_:3d1-   0.0080   0.0071   0.0042   0.0008   0.0071  -0.0136  -0.0182
1455 C_:3d1-  -0.0141  -0.0110  -0.0075   0.0051   0.0038  -0.0043  -0.0054
1480 N_a :2pz    0.1493  -0.1598   0.1668   0.1719  -0.1751  -0.1760   0.1736
1486 N_a :2pz    0.0053  -0.0065   0.0077   0.0091  -0.0106  -0.0124   0.0142
1489 N_a :2pz    0.0073  -0.0090   0.0110   0.0132  -0.0159  -0.0191   0.0229
1526 N_b :2pz    0.0159   0.0138   0.0098  -0.0048   0.0010  -0.0068  -0.0117
1572 O_a :2pz   -0.0187   0.0482   0.0579  -0.0628  -0.0650   0.0644   0.0599
1618 O_b :2pz    0.1295   0.0706   0.0673  -0.0667  -0.0658   0.0631   0.0575
1624 O_b :2pz    0.0112   0.0053   0.0048  -0.0047  -0.0047   0.0048   0.0047

    Orbital       126      127      128      129      130      131      132
   4 C_a :1s     0.0000  -0.0000  -0.0000  -0.0000   0.1054  -0.2657  -0.1058
   5 C_a :1s    -0.0000   0.0000  -0.0000   0.0000   1.2102  -7.1100  -0.5163
   6 C_a :2px   -0.0000   0.0000  -0.0000   0.0000  -0.0020   0.0103   0.0056
   8 C_a :2pz   -0.1931  -0.0934   0.2005  -0.0902   0.0000   0.0000   0.0000
  12 C_a :2px   -0.0000   0.0000   0.0000  -0.0000   0.1171  -0.2553   0.1568
  13 C_a :2py   -0.0000   0.0000  -0.0000   0.0000   0.0817  -0.2199  -0.3241
  14 C_a :2pz   -0.0104  -0.0103   0.0169  -0.0085  -0.0000  -0.0000  -0.0000
  15 C_a :2px    0.0000   0.0000   0.0000  -0.0000  -0.4395   1.0766   0.2970
  16 C_a :2py   -0.0000  -0.0000   0.0000   0.0000   4.5588   0.9051 -10.1473
  17 C_a :2pz   -0.0212  -0.0213   0.0399  -0.0469   0.0000   0.0000   0.0000
  24 C_a :3d1-  -0.0053  -0.0162   0.0120   0.0165   0.0000   0.0000  -0.0000
  27 C_a :3d2+   0.0000   0.0000  -0.0000   0.0000   0.0130  -0.0081   0.0099
  28 C_a :3d2-   0.0000  -0.0000  -0.0000   0.0000  -0.0573   0.1764   0.0226
  29 C_a :3d1-  -0.0026  -0.0048   0.0049   0.0145   0.0000  -0.0000   0.0000
  30 C_a :3d0    0.0000  -0.0000  -0.0000  -0.0000  -0.0319   0.1087  -0.0436
  32 C_a :3d2+   0.0000   0.0000   0.0000  -0.0000   0.2532  -0.0481  -0.1492
  40 C_a :4f3-   0.0000   0.0000   0.0000   0.0000   0.0025   0.0013   0.0121
  46 C_a :4f3+   0.0000   0.0000   0.0000  -0.0000   0.0068  -0.0198   0.0031
  50 C_b :1s     0.0000   0.0000   0.0000  -0.0000   0.2693   0.4477   0.0031
  51 C_b :1s     0.0000  -0.0000   0.0000  -0.0000  -0.0134   6.1815   2.0842
  52 C_b :2px   -0.0000   0.0000  -0.0000   0.0000   0.0017   0.0144   0.0016
  54 C_b :2pz   -0.1049  -0.1724   0.1453   0.1526  -0.0000  -0.0000   0.0000
  58 C_b :2px    0.0000  -0.0000   0.0000  -0.0000   0.0587  -0.1104  -0.1591
  59 C_b :2py    0.0000   0.0000  -0.0000   0.0000   0.1277  -0.2031  -0.2860
  60 C_b :2pz   -0.0094  -0.0100   0.0144   0.0177   0.0000   0.0000   0.0000
  61 C_b :2px   -0.0000   0.0000  -0.0000   0.0000   0.0809   1.0221   0.3399
  62 C_b :2py    0.0000  -0.0000   0.0000  -0.0000   4.5651   0.5675 -10.2800
  63 C_b :2pz   -0.0144  -0.0212   0.0339   0.0961  -0.0000  -0.0000   0.0000
  69 C_b :3d2-  -0.0000   0.0000  -0.0000   0.0000   0.0030  -0.0013  -0.0101
  70 C_b :3d1-   0.0173   0.0055  -0.0191   0.0089   0.0000  -0.0000   0.0000
  73 C_b :3d2+   0.0000  -0.0000   0.0000   0.0000   0.0114   0.0089   0.0153
  74 C_b :3d2-   0.0000  -0.0000  -0.0000   0.0000  -0.0654  -0.0109  -0.2074
  76 C_b :3d0    0.0000  -0.0000   0.0000   0.0000   0.0045  -0.0679  -0.0821
  78 C_b :3d2+   0.0000  -0.0000  -0.0000   0.0000   0.0958   0.1268  -0.1266
  92 C_b :4f3+   0.0000  -0.0000  -0.0000   0.0000  -0.0008  -0.0168  -0.0068
  96 C_c :1s    -0.0000  -0.0000   0.0000   0.0000   0.0599  -0.1581  -0.1249
  97 C_c :1s    -0.0000   0.0000  -0.0000   0.0000  -0.1409  -5.2089   0.3432
 100 C_c :2pz    0.1986   0.0217  -0.2167   0.0719   0.0000  -0.0000   0.0000
 101 C_c :2px    0.0000  -0.0000   0.0000  -0.0000   0.0059  -0.0019   0.0103
 104 C_c :2px    0.0000   0.0000  -0.0000  -0.0000  -0.0020  -0.1852   0.1203
 105 C_c :2py    0.0000   0.0000   0.0000   0.0000   0.1992  -0.1381  -0.3864
 106 C_c :2pz    0.0126   0.0051  -0.0187   0.0060  -0.0000  -0.0000  -0.0000
 107 C_c :2px    0.0000  -0.0000   0.0000  -0.0000   0.0847   0.7506  -0.0726
 108 C_c :2py    0.0000  -0.0000   0.0000  -0.0000   4.4622   1.0214  -9.1769
 109 C_c :2pz    0.0234   0.0096  -0.0439   0.0344   0.0000  -0.0000   0.0000
 116 C_c :3d1-   0.0123   0.0129  -0.0140  -0.0143   0.0000  -0.0000   0.0000
 119 C_c :3d2+  -0.0000   0.0000   0.0000   0.0000   0.0060  -0.0057   0.0195
 120 C_c :3d2-   0.0000  -0.0000  -0.0000  -0.0000  -0.1045   0.1430   0.0134
 121 C_c :3d1-   0.0038   0.0028  -0.0063  -0.0113  -0.0000  -0.0000   0.0000
 122 C_c :3d0   -0.0000  -0.0000   0.0000   0.0000   0.0108   0.0854  -0.0618
 124 C_c :3d2+   0.0000  -0.0000   0.0000  -0.0000  -0.0919  -0.0072  -0.0289
 132 C_c :4f3-  -0.0000   0.0000   0.0000  -0.0000  -0.0040  -0.0000   0.0140
 138 C_c :4f3+   0.0000  -0.0000  -0.0000  -0.0000  -0.0021  -0.0150   0.0051
 142 C_d :1s     0.0000   0.0000  -0.0000  -0.0000  -0.1200   0.3540   0.2929
 143 C_d :1s     0.0000  -0.0000   0.0000  -0.0000   0.6205   4.2743   2.0768
 146 C_d :2pz    0.1737   0.1260  -0.1676  -0.1316  -0.0000   0.0000  -0.0000
 147 C_d :2px   -0.0000   0.0000   0.0000   0.0000  -0.0028  -0.0020  -0.0118
 150 C_d :2px    0.0000   0.0000  -0.0000  -0.0000  -0.0763  -0.0600  -0.0805
 151 C_d :2py   -0.0000   0.0000  -0.0000   0.0000   0.1597  -0.1013  -0.3007
 152 C_d :2pz    0.0114   0.0056  -0.0159  -0.0157   0.0000  -0.0000   0.0000
 153 C_d :2px   -0.0000  -0.0000   0.0000  -0.0000  -0.1493   0.7048   0.2654
 154 C_d :2py   -0.0000  -0.0000  -0.0000  -0.0000   4.8594   0.6562  -9.0310
 155 C_d :2pz    0.0201   0.0123  -0.0377  -0.0825  -0.0000   0.0000  -0.0000
 161 C_d :3d2-   0.0000  -0.0000  -0.0000  -0.0000   0.0009   0.0003  -0.0116
 162 C_d :3d1-  -0.0155   0.0012   0.0202  -0.0070   0.0000  -0.0000   0.0000
 165 C_d :3d2+  -0.0000  -0.0000   0.0000  -0.0000  -0.0008   0.0055   0.0226
 166 C_d :3d2-   0.0000  -0.0000  -0.0000   0.0000   0.0983   0.0200  -0.2786
 168 C_d :3d0   -0.0000   0.0000  -0.0000  -0.0000  -0.0545  -0.0430  -0.0678
 170 C_d :3d2+  -0.0000  -0.0000   0.0000  -0.0000  -0.1121   0.0777   0.0800
 184 C_d :4f3+  -0.0000   0.0000  -0.0000  -0.0000  -0.0051  -0.0116  -0.0079
[...]
1794 H_f :3d2+   0.0000  -0.0028  -0.0067   0.0089   0.0155  -0.0077
1795 H_g :1s    -0.0000   0.0035  -0.0091   0.0104   0.0255  -0.0064
1796 H_g :1s    -0.0000  -0.0775   0.0569   0.0006  -0.0558  -0.0944
1797 H_g :1s     0.0000  -0.7217   0.5390   0.1594  -0.3822  -1.2263
1798 H_g :1s    -0.0000   0.8384  -0.8254  -0.6542  -0.3347   2.4813
1802 H_g :2px    0.0000   0.0207  -0.0086  -0.0072  -0.0054   0.0293
1805 H_g :2px    0.0000   0.1287  -0.0795  -0.0212   0.0493   0.1945
1806 H_g :2py   -0.0000   0.0654  -0.0815  -0.0430   0.0485  -0.0211
1817 H_g :3d2+  -0.0000   0.0023  -0.0051   0.0063   0.0162  -0.0040
1818 H_h :1s     0.0000   0.0006  -0.0056   0.0096   0.0253  -0.0109
1819 H_h :1s    -0.0000   0.0320  -0.0351  -0.0429   0.0037   0.1405
1820 H_h :1s    -0.0000   0.1169  -0.7893  -0.2032   0.9398   1.5929
1821 H_h :1s     0.0000  -1.8809   0.4438  -0.4676  -1.5550  -1.0427
1825 H_h :2px    0.0000   0.0118  -0.0121  -0.0037   0.0224   0.0261
1828 H_h :2px   -0.0000   0.0068  -0.1307  -0.0334   0.1830   0.2581
1829 H_h :2py    0.0000   0.0740   0.0604  -0.0522  -0.0388   0.0239
1838 H_h :3d0   -0.0000   0.0028  -0.0015  -0.0033  -0.0059   0.0103
1840 H_h :3d2+   0.0000   0.0026  -0.0021   0.0072   0.0169  -0.0099
1841 H_i :1s     0.0000   0.0037  -0.0056   0.0068   0.0273  -0.0052
1842 H_i :1s    -0.0000  -0.0737   0.0414  -0.0153  -0.0556  -0.0822
1843 H_i :1s    -0.0000  -1.0564  -0.0136   0.1174   0.5319  -0.9952
1844 H_i :1s     0.0000   1.4058   0.1496  -0.3225  -0.8551   1.6668
1848 H_i :2px   -0.0000   0.0248  -0.0035   0.0020  -0.0107   0.0216
1851 H_i :2px    0.0000   0.1939   0.0155  -0.0055  -0.1142   0.1483
1852 H_i :2py   -0.0000   0.0380  -0.1106  -0.0389   0.0907   0.0373
1863 H_i :3d2+   0.0000  -0.0020  -0.0068   0.0032   0.0201  -0.0002
1864 H_j :1s    -0.0000  -0.0006  -0.0039   0.0055   0.0256  -0.0079
1865 H_j :1s     0.0000   0.0690   0.0014  -0.0207   0.0031   0.0926
1866 H_j :1s     0.0000   1.0705   0.1583   0.0053   0.5776   0.5802
1867 H_j :1s    -0.0000  -0.2924   0.6737   0.4090  -1.7558  -1.9012
1871 H_j :2px   -0.0000   0.0165  -0.0004  -0.0050   0.0204   0.0195
1874 H_j :2px    0.0000   0.1742   0.0433  -0.0088   0.0992   0.0909
1875 H_j :2py    0.0000   0.0135   0.0135  -0.0520   0.0130   0.0211
1886 H_j :3d2+  -0.0000  -0.0021  -0.0028   0.0023   0.0168  -0.0049
1887 H_k :1s    -0.0000   0.0050  -0.0021   0.0051   0.0260  -0.0050
1888 H_k :1s    -0.0000  -0.1199  -0.0020  -0.0552  -0.0614  -0.0233
1889 H_k :1s    -0.0000  -1.3006   0.1412  -0.7375  -0.7633  -0.4196
1890 H_k :1s    -0.0000   1.4717  -0.0424   0.3780  -0.4765   1.2268
1894 H_k :2px   -0.0000   0.0300   0.0015   0.0127  -0.0086   0.0090
1897 H_k :2px    0.0000   0.2254  -0.0193   0.1494   0.0962   0.0508
1898 H_k :2py   -0.0000   0.1144  -0.0614   0.0011   0.1097  -0.0086
1907 H_k :3d0   -0.0000  -0.0055   0.0001  -0.0014  -0.0114  -0.0021
1909 H_k :3d2+  -0.0000   0.0025  -0.0022   0.0023   0.0206  -0.0025
1910 H_l :1s    -0.0000   0.0003  -0.0021   0.0032   0.0243  -0.0064
1911 H_l :1s     0.0000   0.1070   0.0495  -0.0035  -0.0180   0.0404
1912 H_l :1s    -0.0000   0.8702   0.4680  -0.1212  -0.1073   0.6626
1913 H_l :1s     0.0000  -3.0505  -1.1886  -0.9547  -1.0433   0.6448
1917 H_l :2px   -0.0000   0.0276   0.0136  -0.0026   0.0129   0.0070
1920 H_l :2px   -0.0000   0.1369   0.0940  -0.0406  -0.0101   0.1147
1921 H_l :2py    0.0000  -0.0719  -0.0069  -0.1038  -0.0138   0.0392
1932 H_l :3d2+  -0.0000   0.0026   0.0010   0.0014   0.0150  -0.0059
1933 H_m :1s     0.0000   0.0038  -0.0002   0.0028   0.0208  -0.0042
1934 H_m :1s    -0.0000  -0.1275  -0.0437  -0.0480  -0.0018   0.0256
1935 H_m :1s    -0.0000  -1.2837  -0.6420  -0.2499   1.0472   0.1716
1936 H_m :1s     0.0000   1.8572   0.9911   0.2262  -1.0972   0.0074
1940 H_m :2px   -0.0000   0.0259   0.0063   0.0118  -0.0172  -0.0010
1943 H_m :2px   -0.0000   0.1751   0.0761   0.0565  -0.1793  -0.0230
1944 H_m :2py   -0.0000   0.0972  -0.0180   0.0148   0.0230   0.0002
1955 H_m :3d2+   0.0000   0.0079   0.0026   0.0023   0.0143  -0.0048
1956 H_n :1s    -0.0000  -0.0028  -0.0028   0.0013   0.0179  -0.0021
1957 H_n :1s     0.0000   0.1568   0.1116  -0.0063  -0.0546  -0.0308
1958 H_n :1s     0.0000   1.8705   0.8729   0.5144   0.8594  -0.8265
1959 H_n :1s    -0.0000  -0.7316  -0.4378   0.2764  -0.6437  -0.4674
1963 H_n :2px   -0.0000   0.0262   0.0215  -0.0074   0.0029  -0.0002
1966 H_n :2px    0.0000   0.2700   0.1269   0.0640   0.1682  -0.1158
1967 H_n :2py    0.0000  -0.0610  -0.0335  -0.0520   0.0570   0.0328
1976 H_n :3d0   -0.0000   0.0150   0.0073   0.0043  -0.0063  -0.0057
1978 H_n :3d2+  -0.0000  -0.0095  -0.0066  -0.0028   0.0149   0.0046
1979 H_o :1s     0.0000   0.0032   0.0002   0.0029   0.0113  -0.0041
1980 H_o :1s     0.0000  -0.1929  -0.0866  -0.0801   0.0007   0.1068
1981 H_o :1s    -0.0000  -2.4782  -1.1704  -0.8250   0.1557   1.2174
1982 H_o :1s     0.0000   2.8711   1.3731   0.9924  -1.2287  -1.2244
1986 H_o :2px   -0.0000   0.0567   0.0228   0.0259  -0.0036  -0.0313
1989 H_o :2px    0.0000   0.4632   0.2171   0.1731  -0.0348  -0.2496
1990 H_o :2py    0.0000   0.1221  -0.0330   0.0837   0.2055  -0.0764
2002 H_p :1s     0.0000  -0.0018  -0.0032   0.0021   0.0105  -0.0015
2003 H_p :1s    -0.0000   0.0110   0.0511  -0.0464  -0.1405   0.0299
2004 H_p :1s    -0.0000   0.2219   0.9741  -0.7124  -1.9326   0.2913
2005 H_p :1s     0.0000  -3.4184  -2.5380  -0.6313   1.0816   2.0975
2009 H_p :2px   -0.0000   0.0038   0.0136  -0.0121  -0.0286   0.0061
2012 H_p :2px   -0.0000   0.0648   0.2063  -0.1420  -0.3415   0.0421
2013 H_p :2py    0.0000  -0.1615  -0.0512  -0.0921  -0.0014   0.1024
2020 H_p :3d2-   0.0000  -0.0081  -0.0081   0.0005   0.0102   0.0034
2026 H_q :1s     0.0000  -0.0177  -0.0383   0.0231   0.0217  -0.0079
2027 H_q :1s     0.0000  -0.1595  -0.1377   0.0407  -0.1756   0.0099
2028 H_q :1s    -0.0000   1.3751   1.0348   0.2653  -0.3423  -1.0133
2032 H_q :2px   -0.0000   0.0116   0.0140  -0.0040  -0.0054  -0.0025
2035 H_q :2px    0.0000   0.0200   0.0155  -0.0078   0.0466   0.0036
2036 H_q :2py    0.0000   0.0418   0.0224   0.0044   0.1020  -0.0244
2043 H_q :3d2-  -0.0000   0.0040   0.0013   0.0037  -0.0106  -0.0039
2049 H_r :1s    -0.0000  -0.0855  -0.0885   0.0070   0.0865   0.0471
2050 H_r :1s    -0.0000  -0.6421  -0.5224  -0.0857   0.3155   0.4300
2051 H_r :1s     0.0000  -0.2340  -0.1701  -0.1247   1.0170   0.1824
2056 H_r :2py    0.0000   0.0205   0.0187   0.0012  -0.0136  -0.0134
2058 H_r :2px    0.0000   0.0302   0.0205   0.0066   0.0074  -0.0150
2059 H_r :2py   -0.0000   0.1685   0.1182   0.0398  -0.0239  -0.1169
2072 H_s :1s     0.0000   0.0018  -0.0250  -0.0228  -0.0627   0.0756
2073 H_s :1s    -0.0000   0.0653  -0.3220  -0.0358  -0.4715   1.0650
2074 H_s :1s    -0.0000  -0.5018   0.8796  -0.1775   0.1641  -1.1303
2078 H_s :2px    0.0000  -0.0052   0.0027   0.0008   0.0181  -0.0253
2081 H_s :2px    0.0000  -0.0039   0.0438   0.0220   0.1134  -0.2043
2082 H_s :2py    0.0000  -0.0025   0.0253   0.1287   0.1240  -0.0346
2094 H_t :1s    -0.0000   0.0066  -0.0010   0.0122   0.0002   0.0054
2095 H_t :1s     0.0000  -0.0380   0.0243  -0.0316  -0.0496  -0.0403
2096 H_t :1s    -0.0000  -0.4689   0.2026  -0.0366  -0.6618  -0.2237
2097 H_t :1s    -0.0000   0.2830  -0.3632   0.1055   0.2940   0.8538
2101 H_t :2px    0.0000  -0.0072   0.0080  -0.0014  -0.0216  -0.0006
2104 H_t :2px   -0.0000  -0.0925   0.0397  -0.0080  -0.1580  -0.0020
2105 H_t :2py   -0.0000  -0.0509  -0.1087  -0.0225  -0.0401  -0.0130
2117 H_u :1s     0.0000   0.0043  -0.0047   0.0159  -0.0039   0.0017
2118 H_u :1s    -0.0000  -0.0002   0.0263   0.0136  -0.0484   0.0977
2119 H_u :1s    -0.0000   0.2841   0.3627   0.5058  -0.6936   1.0977
2120 H_u :1s     0.0000  -0.5675  -0.4534  -1.3236   0.5029  -1.9423
2124 H_u :2px   -0.0000  -0.0027  -0.0053  -0.0160   0.0252  -0.0310
2127 H_u :2px   -0.0000  -0.0570  -0.0741  -0.1016   0.1808  -0.1982
2128 H_u :2py    0.0000  -0.0464   0.0267   0.1251   0.1299  -0.0119
2139 H_u :3d2+   0.0000   0.0036  -0.0017   0.0110  -0.0054   0.0006
2140 H_v :1s     0.0000   0.0047  -0.0058   0.0212  -0.0058   0.0037
2141 H_v :1s    -0.0000  -0.0127  -0.0134  -0.0599  -0.0817  -0.0692
2142 H_v :1s    -0.0000   0.0047  -0.2615  -0.4820  -0.9685  -0.7860
2143 H_v :1s     0.0000  -0.1768   0.8127  -0.3534   1.3435   1.4292
2147 H_v :2px    0.0000  -0.0024  -0.0088   0.0024  -0.0347  -0.0103
2150 H_v :2px   -0.0000  -0.0150  -0.0494  -0.0679  -0.2250  -0.1075
2151 H_v :2py   -0.0000   0.0238  -0.0579   0.0157  -0.0563   0.0051
2162 H_v :3d2+   0.0000   0.0017  -0.0042   0.0149  -0.0059   0.0043
2163 H_w :1s     0.0000   0.0047  -0.0103   0.0221  -0.0082  -0.0025
2164 H_w :1s    -0.0000  -0.0393   0.0464   0.0335  -0.0207   0.1111
2165 H_w :1s     0.0000  -0.3066   0.3564   0.7766  -0.2979   1.3619
2166 H_w :1s    -0.0000   0.3830  -0.1024  -1.7805   0.0968  -1.8841
2170 H_w :2px    0.0000   0.0072  -0.0052  -0.0289   0.0231  -0.0297
2173 H_w :2px   -0.0000   0.0661  -0.0489  -0.1533   0.1142  -0.2526
2174 H_w :2py    0.0000  -0.0563   0.0221   0.0668   0.1285  -0.0258
2185 H_w :3d2+  -0.0000   0.0022  -0.0069   0.0149  -0.0085  -0.0015
2186 H_x :1s    -0.0000   0.0029  -0.0096   0.0254  -0.0063  -0.0004
2187 H_x :1s     0.0000  -0.0024  -0.0582  -0.0616  -0.0921  -0.0529
2188 H_x :1s     0.0000   0.0831  -0.9393  -0.0585  -1.0848  -0.6419
2189 H_x :1s    -0.0000  -0.2426   1.7024   0.0201   1.3644   1.3479
2193 H_x :2px   -0.0000  -0.0008  -0.0246   0.0064  -0.0372  -0.0109
2196 H_x :2px    0.0000   0.0046  -0.1683   0.0292  -0.2366  -0.0978
2197 H_x :2py   -0.0000   0.0071  -0.0574   0.0020  -0.0484   0.0924
2206 H_x :3d0   -0.0000   0.0009  -0.0005  -0.0111   0.0038  -0.0052
2208 H_x :3d2+  -0.0000   0.0008  -0.0064   0.0184  -0.0052   0.0005
2209 H_y :1s     0.0000   0.0034  -0.0149   0.0233  -0.0057  -0.0053
2210 H_y :1s    -0.0000  -0.0353   0.0919   0.0585  -0.0232   0.0599
2211 H_y :1s    -0.0000  -0.4430   0.6808   1.2121  -0.2912   0.7237
2212 H_y :1s     0.0000   0.0867  -1.2449  -2.2224   0.2648  -0.7232
2216 H_y :2px    0.0000   0.0112  -0.0105  -0.0356   0.0199  -0.0148
2219 H_y :2px   -0.0000   0.0921  -0.0916  -0.2341   0.1063  -0.1347
2220 H_y :2py    0.0000  -0.0173   0.0116   0.0618   0.1092  -0.0704
2231 H_y :3d2+   0.0000   0.0006  -0.0104   0.0159  -0.0067  -0.0031
2232 H_z :1s    -0.0000   0.0020  -0.0114   0.0264  -0.0018  -0.0057
2233 H_z :1s     0.0000   0.0008  -0.0877  -0.0755  -0.0787  -0.0018
2234 H_z :1s     0.0000   0.1738  -1.1496  -0.4718  -0.9701  -0.2073
2235 H_z :1s     0.0000  -0.6963   2.1702  -0.2651   1.0660   0.7226
2239 H_z :2px    0.0000   0.0025  -0.0320   0.0053  -0.0311  -0.0046
2242 H_z :2px    0.0000   0.0201  -0.1966  -0.0441  -0.2221  -0.0337
2243 H_z :2py   -0.0000   0.0238  -0.0305   0.0202  -0.0429   0.1221
2252 H_z :3d0    0.0000   0.0010  -0.0018  -0.0125   0.0030  -0.0001
2254 H_z :3d2+   0.0000   0.0015  -0.0062   0.0196  -0.0035  -0.0041
2255 H_{ :1s     0.0000   0.0062   0.0090  -0.0097   0.0196  -0.0019
2256 H_{ :1s    -0.0000   0.0240  -0.0628  -0.0760  -0.0652  -0.0509
2257 H_{ :1s    -0.0000   0.1623  -0.5657  -0.9631  -0.8571  -0.4036
2258 H_{ :1s    -0.0000  -0.9093   1.3029   1.7056  -0.2837   1.8074
2262 H_{ :2px    0.0000  -0.0096   0.0063   0.0342   0.0052   0.0098
2265 H_{ :2px    0.0000  -0.0167   0.0628   0.2239   0.1661   0.0419
2266 H_{ :2py    0.0000   0.0063  -0.0810   0.1311   0.0836  -0.0651
2277 H_{ :3d2+   0.0000   0.0028   0.0064  -0.0084   0.0119   0.0009
2278 H_| :1s    -0.0000   0.0082   0.0047  -0.0080   0.0162  -0.0022
2279 H_| :1s     0.0000  -0.0615   0.0981  -0.0271  -0.0243   0.0811
2280 H_| :1s     0.0000  -0.6640   1.2155  -0.4266  -0.2690   0.9704
2281 H_| :1s    -0.0000   0.5612  -2.1433   0.6739  -1.2425  -1.1574
2285 H_| :2px   -0.0000  -0.0090   0.0339  -0.0184   0.0024   0.0202
2288 H_| :2px    0.0000  -0.1066   0.2344  -0.1185  -0.0641   0.1801
2289 H_| :2py   -0.0000  -0.0423  -0.0372  -0.0261  -0.0806  -0.0709
2300 H_| :3d2+   0.0000   0.0067   0.0035  -0.0063   0.0101  -0.0026
2301 H_} :1s    -0.0000   0.0055   0.0077  -0.0027   0.0138   0.0025
2302 H_} :1s     0.0000   0.0372  -0.0473  -0.0339  -0.0587  -0.0027
2303 H_} :1s     0.0000   0.5789  -0.5398  -0.4944  -0.2438  -0.1351
2304 H_} :1s     0.0000  -1.0293   0.5582   0.4942   0.1162  -0.0754
2308 H_} :2px    0.0000  -0.0117   0.0030   0.0195   0.0104  -0.0068
2311 H_} :2px    0.0000  -0.0900   0.0722   0.1191   0.0674  -0.0025
2312 H_} :2py    0.0000  -0.0197  -0.0465   0.1217   0.1095  -0.0435
2325 H_~ :1s     0.0000  -0.0447   0.0789  -0.0355  -0.0351   0.0117
2326 H_~ :1s     0.0000  -0.2067   1.0687  -0.3139   0.0550   0.1558
2327 H_~ :1s     0.0000   0.3273  -1.3402  -0.2993  -0.2827  -0.2417
2331 H_~ :2px   -0.0000  -0.0074   0.0258  -0.0105  -0.0071   0.0111
2334 H_~ :2px   -0.0000  -0.0294   0.2094  -0.0751  -0.0273   0.0509
2335 H_~ :2py   -0.0000  -0.0263  -0.0722  -0.0073  -0.0418  -0.0748
2347 H_ :1s     0.0000   0.0038   0.0006  -0.0052   0.0113  -0.0070
2348 H_ :1s     0.0000  -0.0149   0.0191  -0.1428  -0.1067  -0.0271
2349 H_ :1s    -0.0000  -0.1895   0.2639  -1.7574  -1.3240  -0.4041
2350 H_ :1s    -0.0000  -0.3258   0.2105   2.0943   0.1103   1.7233
2354 H_ :2px   -0.0000   0.0009  -0.0059   0.0462   0.0159   0.0136
2355 H_ :2py   -0.0000  -0.0019   0.0086  -0.0177  -0.0067   0.0019
2357 H_ :2px    0.0000   0.0401  -0.0802   0.3870   0.2563   0.0688
2358 H_ :2py    0.0000   0.0348  -0.0494   0.0344  -0.0023  -0.0699
2359 H_ :2pz    0.0157  -0.0000  -0.0000  -0.0000   0.0000   0.0000
2370 H_:1s     0.0000   0.0059   0.0003  -0.0119   0.0115  -0.0115
2371 H_:1s    -0.0000  -0.0412   0.0703  -0.0112  -0.0181   0.1019
2372 H_:1s    -0.0000  -0.3819   0.6156  -0.0190   0.3519   0.8896
2373 H_:1s    -0.0000   0.3517  -1.1246   0.5211  -0.5854  -1.0208
2377 H_:2px   -0.0000  -0.0094   0.0252  -0.0255  -0.0026   0.0211
2380 H_:2px   -0.0000  -0.0752   0.1251  -0.0552   0.0442   0.1701
2381 H_:2py   -0.0000  -0.0146   0.0058   0.0097  -0.0686  -0.0266
2392 H_:3d2+   0.0000   0.0029   0.0043  -0.0157   0.0075  -0.0061
2393 H_:1s     0.0000   0.0046   0.0060  -0.0124   0.0168  -0.0060
2394 H_:1s     0.0000   0.0239  -0.0362  -0.1020  -0.0610  -0.0650
2395 H_:1s     0.0000   0.6030  -0.5115  -1.0063   0.3711  -1.1907
2396 H_:1s     0.0000  -0.7008   0.4847   1.4725  -0.0748   1.4669
2400 H_:2px   -0.0000  -0.0093  -0.0023   0.0428   0.0054   0.0165
2403 H_:2px   -0.0000  -0.1050   0.0538   0.2183  -0.0581   0.1883
2404 H_:2py    0.0000  -0.0070  -0.0608   0.0469   0.0498  -0.0408
2415 H_:3d2+   0.0000   0.0036   0.0077  -0.0086   0.0109  -0.0006
2416 H_:1s    -0.0000   0.0070   0.0040  -0.0147   0.0172  -0.0080
2417 H_:1s     0.0000  -0.0416   0.0924   0.0131  -0.0177   0.1040
2418 H_:1s     0.0000  -0.2263   1.0531   0.0852   0.4513   0.8976
2419 H_:1s     0.0000   0.3851  -1.3793  -0.4745  -0.9526  -1.4069
2423 H_:2px    0.0000  -0.0067   0.0279  -0.0133   0.0076   0.0210
2426 H_:2px    0.0000  -0.0285   0.1979  -0.0332   0.0733   0.1482
2427 H_:2py   -0.0000   0.0074  -0.0169   0.0173  -0.0153  -0.0849
2438 H_:3d2+  -0.0000   0.0052   0.0014  -0.0086   0.0113  -0.0058

  Total CPU  time used in SIRIUS :   1 hour  16 minutes 20 seconds
  Total wall time used in SIRIUS :   1 hour  16 minutes 44 seconds

 
     Date and time (Linux)  : Wed May 28 21:11:40 2025
     Host name              : xm009                                   

 NOTE:    1 warnings have been issued.
 Check output, result, and error files for "WARNING".


                     .---------------------------------------.
                     | End of Wave Function Section (SIRIUS) |
                     `---------------------------------------'



                 .------------------------------------------------.
                 | Starting in Dynamic Property Section (RESPONS) |
                 `------------------------------------------------'


 ----------------------------------------------------------------------------------------
  RESPONSE  -  an MCSCF, MC-srDFT, DFT, SOPPA and SOPPA-srDFT response property program
 ----------------------------------------------------------------------------------------


 -------- OUTPUT FROM RESPONSE INPUT PROCESSING --------




 Quadratic Response calculation
 ------------------------------

 First hyperpolarizability calculation : HYPCAL= T

 Spin of operator A , ISPINA=    0
 Spin of operator B , ISPINB=    0
 Spin of operator C , ISPINC=    0

  2 B-frequencies  0.000000D+00  1.490000D-02
  2 C-frequencies  0.000000D+00  1.490000D-02


 Print level                                    : IPRHYP =   2
 Maximum number of iterations in lin.rsp. solver: MAXITL =  60
 Threshold for convergence of linear resp. eq.s : THCLR  = 1.000D-03
 Maximum iterations in optimal orbital algorithm: MAXITO =   5
 Direct one-index transformation                : DIROIT = T

    3 A OPERATORS OF SYMMETRY NO:    1 AND LABELS:

          XDIPLEN 
          YDIPLEN 
          ZDIPLEN 

    3 B OPERATORS OF SYMMETRY NO:    1 AND LABELS:

          XDIPLEN 
          YDIPLEN 
          ZDIPLEN 

    3 C OPERATORS OF SYMMETRY NO:    1 AND LABELS:

          XDIPLEN 
          YDIPLEN 
          ZDIPLEN 


   SCF energy         :    -1490.359866401001909
 -- inactive part     :    -3893.123032628180226
 -- nuclear repulsion :     2402.763166227178317


                     ***************************************
                     *** RHF response calculation (TDHF) ***
                     ***************************************



 Linear response calculations for quadratic response
 - singlet property operator of symmetry    1  ( A  )


 Perturbation symmetry.     KSYMOP:           1
 Perturbation spin symmetry.TRPLET:           F
 Orbital variables.         KZWOPT:      293760
 Configuration variables.   KZCONF:           0
 Total number of variables. KZVAR :      293760


 QRLRVE -- linear response calculation for symmetry  1  ( A  )
 QRLRVE -- operator label : XDIPLEN 
 QRLRVE -- operator spin  :   0
 QRLRVE -- frequencies :  0.000000  0.014900  0.029800



 ---  SOLVING SETS OF LINEAR EQUATIONS FOR LINEAR RESPONSE PROPERTIES ---

 Operator symmetry = 1  ( A  ); triplet =   F


 ** RSPCTL MICROITERATION NUMBER    1

 MEMGET ERROR, insufficient free space for next allocation
               ( Need:  17831546, available (LFREE):  15650726 )


 QTRACE dump of internal trace stack

 ========================
      level    module
 ========================
         15    MEMGET2     
         14    HER_PARDRV  
         13    PARDRV      
         12    HERFCK_1    
         11    HERFCK      
         10    SIRFCK      
          9    RSPOLI      
          8    RSPELI      
          7    RSPCTL      
          6    QRLRVE      
          5    QRVEC       
          4    QRCALC      
          3    RSPDRV      
          2    DALTON      
          1    DALTON main 
 ========================


  --- SEVERE ERROR, PROGRAM WILL BE ABORTED ---
     Date and time (Linux)  : Wed May 28 21:11:54 2025
     Host name              : xm009                                   

@ MPI MASTER, node no.:     0
@ Reason: MEMGET ERROR, insufficient work space in memory

  Total CPU  time used in DALTON:   1 hour  17 minutes 10 seconds
  Total wall time used in DALTON:   1 hour  17 minutes 34 seconds


 QTRACE dump of internal trace stack

 ========================
      level    module
 ========================
         15    MEMGET2     
         14    HER_PARDRV  
         13    PARDRV      
         12    HERFCK_1    
         11    HERFCK      
         10    SIRFCK      
          9    RSPOLI      
          8    RSPELI      
          7    RSPCTL      
          6    QRLRVE      
          5    QRVEC       
          4    QRCALC      
          3    RSPDRV      
          2    DALTON      
          1    DALTON main 
 ========================

