

     ************************************************************************
     *************** Dalton - An Electronic Structure Program ***************
     ************************************************************************

    This is output from DALTON release Dalton2020.0 (2020)
         ( Web site: http://daltonprogram.org )

   ----------------------------------------------------------------------------

    NOTE:
     
    Dalton is an experimental code for the evaluation of molecular
    properties using (MC)SCF, DFT, CI, and CC wave functions.
    The authors accept no responsibility for the performance of
    the code or for the correctness of the results.
     
    The code (in whole or part) is provided under a licence and
    is not to be reproduced for further distribution without
    the written permission of the authors or their representatives.
     
    See the home page "http://daltonprogram.org" for further information.
     
    If results obtained with this code are published,
    the appropriate citations would be both of:
     
       K. Aidas, C. Angeli, K. L. Bak, V. Bakken, R. Bast,
       L. Boman, O. Christiansen, R. Cimiraglia, S. Coriani,
       P. Dahle, E. K. Dalskov, U. Ekstroem,
       T. Enevoldsen, J. J. Eriksen, P. Ettenhuber, B. Fernandez,
       L. Ferrighi, H. Fliegl, L. Frediani, K. Hald, A. Halkier,
       C. Haettig, H. Heiberg, T. Helgaker, A. C. Hennum,
       H. Hettema, E. Hjertenaes, S. Hoest, I.-M. Hoeyvik,
       M. F. Iozzi, B. Jansik, H. J. Aa. Jensen, D. Jonsson,
       P. Joergensen, J. Kauczor, S. Kirpekar,
       T. Kjaergaard, W. Klopper, S. Knecht, R. Kobayashi, H. Koch,
       J. Kongsted, A. Krapp, K. Kristensen, A. Ligabue,
       O. B. Lutnaes, J. I. Melo, K. V. Mikkelsen, R. H. Myhre,
       C. Neiss, C. B. Nielsen, P. Norman, J. Olsen,
       J. M. H. Olsen, A. Osted, M. J. Packer, F. Pawlowski,
       T. B. Pedersen, P. F. Provasi, S. Reine, Z. Rinkevicius,
       T. A. Ruden, K. Ruud, V. Rybkin, P. Salek, C. C. M. Samson,
       A. Sanchez de Meras, T. Saue, S. P. A. Sauer,
       B. Schimmelpfennig, K. Sneskov, A. H. Steindal,
       K. O. Sylvester-Hvid, P. R. Taylor, A. M. Teale,
       E. I. Tellgren, D. P. Tew, A. J. Thorvaldsen, L. Thoegersen,
       O. Vahtras, M. A. Watson, D. J. D. Wilson, M. Ziolkowski
       and H. Agren,
       "The Dalton quantum chemistry program system",
       WIREs Comput. Mol. Sci. 2014, 4:269–284 (doi: 10.1002/wcms.1172)
     
    and
     
       Dalton, a molecular electronic structure program,
       Release Dalton2020.0 (2020), see http://daltonprogram.org
   ----------------------------------------------------------------------------

    Authors in alphabetical order (Major contribution(s) in parenthesis):

  Kestutis Aidas,           Vilnius University,           Lithuania   (QM/MM)
  Celestino Angeli,         University of Ferrara,        Italy       (NEVPT2)
  Keld L. Bak,              UNI-C,                        Denmark     (AOSOPPA, non-adiabatic coupling, magnetic properties)
  Vebjoern Bakken,          University of Oslo,           Norway      (DALTON; geometry optimizer, symmetry detection)
  Radovan Bast,             UiT The Arctic U. of Norway,  Norway      (DALTON installation and execution frameworks)
  Pablo Baudin,             University of Valencia,       Spain       (Cholesky excitation energies)
  Linus Boman,              NTNU,                         Norway      (Cholesky decomposition and subsystems)
  Bruno N. Cabral Tenorio,  Technical Univ. of Denmark,   Denmark     (Lanczos-based CC methods)
  Ove Christiansen,         Aarhus University,            Denmark     (CC module)
  Renzo Cimiraglia,         University of Ferrara,        Italy       (NEVPT2)
  Sonia Coriani,            Technical Univ. of Denmark,   Denmark     (CC and RESPONS modules)
  Janusz Cukras,            University of Warsaw,         Poland      (MChD in RESPONS)
  Paal Dahle,               University of Oslo,           Norway      (Parallelization)
  Erik K. Dalskov,          UNI-C,                        Denmark     (SOPPA)
  Thomas Enevoldsen,        Univ. of Southern Denmark,    Denmark     (SOPPA)
  Janus J. Eriksen,         Aarhus University,            Denmark     (Polarizable embedding, TDA)
  Rasmus Faber,             Technical Univ. of Denmark,   Denmark     (Vib.avg. NMR w. SOPPA, parallel AO-SOPPA, CVS-CC and EOMCC)
  Tobias Fahleson,          KTH Stockholm,                Sweden      (Damped cubic response)
  Berta Fernandez,          U. of Santiago de Compostela, Spain       (Doublet spin, ESR in RESPONS)
  Lara Ferrighi,            Aarhus University,            Denmark     (PCM Cubic response)
  Heike Fliegl,             University of Oslo,           Norway      (CCSD(R12))
  Luca Frediani,            UiT The Arctic U. of Norway,  Norway      (PCM)
  Emmanuel Fromager,        Univ. Strasbourg,             France      (MC-srDFT)
  Bin Gao,                  UiT The Arctic U. of Norway,  Norway      (Gen1Int library)
  Andre S. P. Gomes,        CNRS/Universite de Lille,     France      (Frozen density embedding)
  Christof Haettig,         Ruhr-University Bochum,       Germany     (CC module)
  Kasper Hald,              Aarhus University,            Denmark     (CC module)
  Asger Halkier,            Aarhus University,            Denmark     (CC module)
  Frederik Beyer Hansen,    University of Copenhagen,     Denmark     (Parallel AO-SOPPA)
  Erik D. Hedegaard,        Univ. of Southern Denmark,    Denmark     (Polarizable embedding, QM/MM, and MC-srDFT)
  Hanne Heiberg,            University of Oslo,           Norway      (Geometry analysis, selected one-electron integrals)
  Trygve Helgaker,          University of Oslo,           Norway      (DALTON; ABACUS, ERI, DFT modules, London, and much more)
  Alf Christian Hennum,     University of Oslo,           Norway      (Parity violation)
  Hinne Hettema,            University of Auckland,       New Zealand (Quadratic response in RESPONS; SIRIUS supersymmetry)
  Eirik Hjertenaes,         NTNU,                         Norway      (Cholesky decomposition)
  Pi A. B. Haase,           University of Copenhagen,     Denmark     (Triplet AO-SOPPA)
  Maria Francesca Iozzi,    University of Oslo,           Norway      (RPA)
  Christoph Jacob           TU Braunschweig               Germany     (Frozen density embedding)
  Brano Jansik              Technical Univ. of Ostrava    Czech Rep.  (DFT cubic response)
  Hans Joergen Aa. Jensen,  Univ. of Southern Denmark,    Denmark     (DALTON; SIRIUS, RESPONS, ABACUS, MC-srDFT, and much more)
  Dan Jonsson,              UiT The Arctic U. of Norway,  Norway      (Cubic response in RESPONS module)
  Poul Joergensen,          Aarhus University,            Denmark     (RESPONS, ABACUS, and CC modules)
  Maciej Kaminski,          University of Warsaw,         Poland      (CPPh in RESPONS)
  Joanna Kauczor,           Linkoeping University,        Sweden      (Complex polarization propagator (CPP) module)
  Sheela Kirpekar,          Univ. of Southern Denmark,    Denmark     (Mass-velocity & Darwin integrals)
  Erik Kjellgren,           Univ. of Southern Denmark,    Denmark     (MC-srDFT)
  Wim Klopper,              KIT Karlsruhe,                Germany     (R12 code in CC, SIRIUS, and ABACUS modules)
  Stefan Knecht,            ETH Zurich,                   Switzerland (Parallel CI and MCSCF, MC-srDFT)
  Rika Kobayashi,           Australian National Univ.,    Australia   (DIIS in CC, London in MCSCF)
  Henrik Koch,              NTNU,                         Norway      (CC module, Cholesky decomposition)
  Jacob Kongsted,           Univ. of Southern Denmark,    Denmark     (Polarizable embedding, polarizable density embedding, QM/MM)
  Andrea Ligabue,           University of Modena,         Italy       (CTOCD, AOSOPPA)
  Nanna H. List             Univ. of Southern Denmark,    Denmark     (Polarizable embedding)
  Ola B. Lutnaes,           University of Oslo,           Norway      (DFT Hessian)
  Juan I. Melo,             University of Buenos Aires,   Argentina   (LRESC, Relativistic Effects on NMR Shieldings)
  Kurt V. Mikkelsen,        University of Copenhagen,     Denmark     (MC-SCRF and QM/MM)
  Rolf H. Myhre,            NTNU,                         Norway      (Subsystems and CC3)
  Christian Neiss,          Univ. Erlangen-Nuernberg,     Germany     (CCSD(R12))
  Christian B. Nielsen,     University of Copenhagen,     Denmark     (QM/MM)
  Patrick Norman,           KTH Stockholm,                Sweden      (Cubic response and complex frequency response in RESPONS)
  Jeppe Olsen,              Aarhus University,            Denmark     (SIRIUS CI/density modules)
  Jogvan Magnus H. Olsen,   Aarhus University,            Denmark     (Polarizable embedding and polarizable density embedding)
  Anders Osted,             Copenhagen University,        Denmark     (QM/MM)
  Martin J. Packer,         University of Sheffield,      UK          (SOPPA)
  Filip Pawlowski,          Kazimierz Wielki University,  Poland      (CC3)
  Morten N. Pedersen,       Univ. of Southern Denmark,    Denmark     (Polarizable embedding)
  Thomas B. Pedersen,       University of Oslo,           Norway      (Cholesky decomposition)
  Patricio F. Provasi,      University of Northeastern,   Argentina   (Analysis of coupling constants in localized orbitals)
  Peter Reinholdt,          Univ. of Southern Denmark,    Denmark     (Polarizable embedding and polarizable density embedding)
  Zilvinas Rinkevicius,     KTH Stockholm,                Sweden      (open-shell DFT, ESR)
  Elias Rudberg,            KTH Stockholm,                Sweden      (DFT grid and basis info)
  Torgeir A. Ruden,         University of Oslo,           Norway      (Numerical derivatives in ABACUS)
  Kenneth Ruud,             UiT The Arctic U. of Norway,  Norway      (DALTON; ABACUS magnetic properties and much more)
  Pawel Salek,              KTH Stockholm,                Sweden      (DALTON; DFT code)
  Claire C. M. Samson       University of Karlsruhe       Germany     (Boys localization, r12 integrals in ERI)
  Alfredo Sanchez de Meras, University of Valencia,       Spain       (CC module, Cholesky decomposition)
  Trond Saue,               Paul Sabatier University,     France      (direct Fock matrix construction)
  Stephan P. A. Sauer,      University of Copenhagen,     Denmark     (SOPPA(CCSD), SOPPA prop., AOSOPPA, vibrational g-factors)
  Bernd Schimmelpfennig,    Forschungszentrum Karlsruhe,  Germany     (AMFI module)
  Anna K. Schnack-Petersen, University of Copenhagen,     Denmark     (RPA(D) and HRPA(D) properties in AOSOPPA)
  Kristian Sneskov,         Aarhus University,            Denmark     (Polarizable embedding, QM/MM)
  Arnfinn H. Steindal,      UiT The Arctic U. of Norway,  Norway      (parallel QM/MM, polarizable embedding)
  Casper Steinmann,         Aalborg University,           Denmark     (QFIT, polarizable embedding)
  K. O. Sylvester-Hvid,     University of Copenhagen,     Denmark     (MC-SCRF)
  Peter R. Taylor,          VLSCI/Univ. of Melbourne,     Australia   (Symmetry handling ABACUS, integral transformation)
  Andrew M. Teale,          University of Nottingham,     England     (DFT-AC, DFT-D)
  David P. Tew,             University of Bristol,        England     (CCSD(R12))
  Julien Toulouse,          Sorbonne Univ.,               France      (MC-srDFT)
  Olav Vahtras,             KTH Stockholm,                Sweden      (Triplet response, spin-orbit, ESR, TDDFT, open-shell DFT)
  Lucas Visscher,           Vrije Universiteit Amsterdam, Netherlands (Frozen density embedding)
  David J. Wilson,          La Trobe University,          Australia   (DFT Hessian and DFT magnetizabilities)
  Hans Agren,               KTH Stockholm,                Sweden      (SIRIUS module, RESPONS, MC-SCRF solvation)
 --------------------------------------------------------------------------------

     Date and time (Linux)  : Fri May  9 17:11:38 2025
     Host name              : xm046                                   

 * Work memory size             :  1310720000 =  9.766 gigabytes.

 * Directories for basis set searches:
   1) /gpfs/projects/rjh/adrian/summer2025/beta_projects/raw_data/NLO/dalton/hf/n5/dipole
   2) /gpfs/projects/rjh/adrian/dalton/build/basis


Compilation information
-----------------------

 Who compiled             | ahurtado
 Host                     | milan2
 System                   | Linux-5.14.0-427.42.1.el9_4.x86_64
 CMake generator          | Unix Makefiles
 Processor                | x86_64
 64-bit integers          | OFF
 MPI                      | ON
 Fortran compiler         | /gpfs/software/openmpi/milan/gcc13.2/4.1.6/bin/mpi
                          | f90
 Fortran compiler version | GNU Fortran (GCC) 13.2.0
 C compiler               | /gpfs/software/openmpi/milan/gcc13.2/4.1.6/bin/mpi
                          | cc
 C compiler version       | gcc (GCC) 13.2.0
 C++ compiler             | /gpfs/software/openmpi/milan/gcc13.2/4.1.6/bin/mpi
                          | cxx
 C++ compiler version     | unknown
 BLAS                     | /gpfs/software/intel/oneAPI/2024_2/mkl/2024.2/lib/
                          | intel64/libmkl_gf_lp64.so;/gpfs/software/intel/one
                          | API/2024_2/mkl/2024.2/lib/intel64/libmkl_sequentia
                          | l.so;/gpfs/software/intel/oneAPI/2024_2/mkl/2024.2
                          | /lib/intel64/libmkl_core.so;/usr/lib64/libpthread.
                          | a;/usr/lib64/libm.so
 LAPACK                   | /gpfs/software/intel/oneAPI/2024_2/mkl/2024.2/lib/
                          | intel64/libmkl_lapack95_lp64.a;/gpfs/software/inte
                          | l/oneAPI/2024_2/mkl/2024.2/lib/intel64/libmkl_gf_l
                          | p64.so
 Static linking           | OFF
 Last Git revision        | 66052b3af5ea7225e31178bf9a8b031913c72190
 Git branch               | (HEAD detached at Dalton2020.0)
 Configuration time       | 2025-04-10 16:02:31.569498

 * MPI parallel run using 96 processes.


   Content of the .dal input file
 ----------------------------------

**DALTON INPUT
.RUN RESPONSE
.DIRECT
**WAVE FUNCTIONS
.HF
**PROPERTIES
**RESPONSE
*QUADRA
.DIPLEN
.FREQUENCIES
2
0.0 0.0215
**END OF DALTON INPUT


   Content of the .mol file
 ----------------------------

BASIS
aug-cc-pVTZ
blah
blah
Atomtype=4 Angstrom Charge=0 Nosymmetry
Charge=6 Atoms=10
C_a 5.536066998843778 3.466402999753725 0.0
C_b 4.166369001271292 3.4392500015976735 0.0
C_c 3.4276169984318443 2.20278399812645 0.0
C_d 2.058811997985908 2.096950000646235 0.0
C_e 1.365670001188536 0.8343780025891309 0.0
C_f 0.0 0.6914970018120553 0.0
C_g -0.6598629998290869 -0.5899810004107818 0.0
C_h -2.019472001042177 -0.7625100010991812 0.0
C_i -2.635186000190127 -2.070242998335108 0.0
C_j -3.974355002463877 -2.2666549995239453 0.0
Charge=7 Atoms=2
N_a 6.321381997672225 4.585279000628057 0.0
N_b -4.538794000068139 -3.610130001429271 0.0
Charge=8 Atoms=2
O_a -3.7757759994302575 -4.579172999422615 0.0
O_b -5.7747340013919555 -3.670131997735762 0.0
Charge=1 Atoms=12
H_a 6.093148999149485 2.5210970022683954 0.0
H_b 3.6069480006520194 4.384473997782438 0.0
H_c 5.909042998119462 5.508340002167312 0.0
H_d 7.3272380020916446 4.514706001608058 0.0
H_e 4.014154002428372 1.2707440023448995 0.0
H_f 1.453018002455127 3.0142559989321143 0.0
H_g 1.9828259976520177 -0.07723600157384668 0.0
H_h -0.6296780014679194 1.592591000069318 0.0
H_i -0.02111300122409742 -1.4859380003119211 0.0
H_j -2.6721639987787165 0.12098999792607903 0.0
H_k -1.992137997821215 -2.958866999124197 0.0
H_l -4.7392729980013515 -1.4879950020899213 0.0


       *******************************************************************
       *********** Output from DALTON general input processing ***********
       *******************************************************************

 --------------------------------------------------------------------------------
   Overall default print level:    0
   Print level for DALTON.STAT:    1

    Parallel calculation using MPI
    AO-direct calculation (in sections where implemented)
    HERMIT 1- and 2-electron integral sections will be executed
    "Old" integral transformation used (limited to max 255 basis functions)
    Wave function sections will be executed (SIRIUS module)
    Dynamic molecular response properties section will be executed (RESPONSE module)
 --------------------------------------------------------------------------------


   ****************************************************************************
   *************** Output of molecule and basis set information ***************
   ****************************************************************************


    The two title cards from your ".mol" input:
    ------------------------------------------------------------------------
 1: blah                                                                    
 2: blah                                                                    
    ------------------------------------------------------------------------

  Coordinates are entered in Angstrom and converted to atomic units.
          - Conversion factor : 1 bohr = 0.52917721 A

  Atomic type no.    1
  --------------------
  Nuclear charge:   6.00000
  Number of symmetry independent centers:   10
  Number of basis sets to read;    2
  Basis set file used for this atomic type with Z =   6 :
     "/gpfs/projects/rjh/adrian/dalton/build/basis/aug-cc-pVTZ"

  Atomic type no.    2
  --------------------
  Nuclear charge:   7.00000
  Number of symmetry independent centers:    2
  Number of basis sets to read;    2
  Basis set file used for this atomic type with Z =   7 :
     "/gpfs/projects/rjh/adrian/dalton/build/basis/aug-cc-pVTZ"

  Atomic type no.    3
  --------------------
  Nuclear charge:   8.00000
  Number of symmetry independent centers:    2
  Number of basis sets to read;    2
  Basis set file used for this atomic type with Z =   8 :
     "/gpfs/projects/rjh/adrian/dalton/build/basis/aug-cc-pVTZ"

  Atomic type no.    4
  --------------------
  Nuclear charge:   1.00000
  Number of symmetry independent centers:   12
  Number of basis sets to read;    2
  Basis set file used for this atomic type with Z =   1 :
     "/gpfs/projects/rjh/adrian/dalton/build/basis/aug-cc-pVTZ"


                         SYMGRP: Point group information
                         -------------------------------

@    Point group: C1 


                                 Isotopic Masses
                                 ---------------

                           C_a        12.000000
                           C_b        12.000000
                           C_c        12.000000
                           C_d        12.000000
                           C_e        12.000000
                           C_f        12.000000
                           C_g        12.000000
                           C_h        12.000000
                           C_i        12.000000
                           C_j        12.000000
                           N_a        14.003074
                           N_b        14.003074
                           O_a        15.994915
                           O_b        15.994915
                           H_a         1.007825
                           H_b         1.007825
                           H_c         1.007825
                           H_d         1.007825
                           H_e         1.007825
                           H_f         1.007825
                           H_g         1.007825
                           H_h         1.007825
                           H_i         1.007825
                           H_j         1.007825
                           H_k         1.007825
                           H_l         1.007825

                       Total mass:   192.089878 amu
                       Natural abundance:  88.282 %

 Center-of-mass coordinates (a.u.):   -0.197924   -0.164682    0.000000
 Center-of-mass coordinates (Angs):   -0.104737   -0.087146    0.000000


  Atoms and basis sets
  --------------------

  Number of atom types :    4
  Total number of atoms:   26

  Basis set used is "aug-cc-pVTZ" from the basis set library.

  label    atoms   charge   prim   cont     basis
  ----------------------------------------------------------------------
  C_         10    6.0000    58    46      [11s6p3d2f|5s4p3d2f]                               
  N_          2    7.0000    58    46      [11s6p3d2f|5s4p3d2f]                               
  O_          2    8.0000    58    46      [11s6p3d2f|5s4p3d2f]                               
  H_         12    1.0000    25    23      [6s3p2d|4s3p2d]                                    
  ----------------------------------------------------------------------
  total:     26  102.0000  1112   920
  ----------------------------------------------------------------------
  Spherical harmonic basis used.

  Threshold for neglecting AO integrals:  1.00D-12

  Max    interatomic separation is   15.4484 Angstrom (   29.1933 Bohr)
  between atoms   18 and   14, "H_d   " and "O_b   ".

  Min HX interatomic separation is    1.0083 Angstrom (    1.9055 Bohr)

  Min YX interatomic separation is    1.2334 Angstrom (    2.3308 Bohr)


  Bond distances (Angstrom):
  --------------------------

                  atom 1     atom 2       distance
                  ------     ------       --------
  bond distance:  C_b        C_a          1.369967
  bond distance:  C_c        C_b          1.440348
  bond distance:  C_d        C_c          1.372890
  bond distance:  C_e        C_d          1.440324
  bond distance:  C_f        C_e          1.373124
  bond distance:  C_g        C_f          1.441390
  bond distance:  C_h        C_g          1.370512
  bond distance:  C_i        C_h          1.445430
  bond distance:  C_j        C_i          1.353496
  bond distance:  N_a        C_a          1.366969
  bond distance:  N_b        C_j          1.457229
  bond distance:  O_a        N_b          1.233386
  bond distance:  O_b        N_b          1.237396
  bond distance:  H_a        C_a          1.097244
  bond distance:  H_b        C_b          1.098363
  bond distance:  H_c        N_a          1.010972
  bond distance:  H_d        N_a          1.008329
  bond distance:  H_e        C_c          1.101238
  bond distance:  H_f        C_d          1.099289
  bond distance:  H_g        C_e          1.100873
  bond distance:  H_h        C_f          1.099302
  bond distance:  H_i        C_g          1.100337
  bond distance:  H_j        C_h          1.098444
  bond distance:  H_k        C_i          1.096888
  bond distance:  H_l        C_j          1.091518


  Bond angles (degrees):
  ----------------------

                  atom 1     atom 2     atom 3         angle
                  ------     ------     ------         -----
  bond angle:     C_b        C_a        N_a          126.200
  bond angle:     C_b        C_a        H_a          119.376
  bond angle:     N_a        C_a        H_a          114.424
  bond angle:     C_a        C_b        C_c          121.993
  bond angle:     C_a        C_b        H_b          119.483
  bond angle:     C_c        C_b        H_b          118.524
  bond angle:     C_b        C_c        C_d          125.278
  bond angle:     C_b        C_c        H_e          116.961
  bond angle:     C_d        C_c        H_e          117.761
  bond angle:     C_c        C_d        C_e          123.188
  bond angle:     C_c        C_d        H_f          119.020
  bond angle:     C_e        C_d        H_f          117.793
  bond angle:     C_d        C_e        C_f          124.739
  bond angle:     C_d        C_e        H_g          117.136
  bond angle:     C_f        C_e        H_g          118.125
  bond angle:     C_e        C_f        C_g          123.218
  bond angle:     C_e        C_f        H_h          118.973
  bond angle:     C_g        C_f        H_h          117.809
  bond angle:     C_f        C_g        C_h          124.477
  bond angle:     C_f        C_g        H_i          117.269
  bond angle:     C_h        C_g        H_i          118.254
  bond angle:     C_g        C_h        C_i          122.444
  bond angle:     C_g        C_h        H_j          119.223
  bond angle:     C_i        C_h        H_j          118.332
  bond angle:     C_h        C_i        C_j          123.556
  bond angle:     C_h        C_i        H_k          118.897
  bond angle:     C_j        C_i        H_k          117.547
  bond angle:     C_i        C_j        N_b          121.133
  bond angle:     C_i        C_j        H_l          126.146
  bond angle:     N_b        C_j        H_l          112.721
  bond angle:     C_a        N_a        H_c          120.865
  bond angle:     C_a        N_a        H_d          121.051
  bond angle:     H_c        N_a        H_d          118.084
  bond angle:     C_j        N_b        O_a          118.994
  bond angle:     C_j        N_b        O_b          115.568
  bond angle:     O_a        N_b        O_b          125.437




 Principal moments of inertia (u*A**2) and principal axes
 --------------------------------------------------------

   IA      79.412402          0.801134    0.598486    0.000000
   IB    4506.972239         -0.598486    0.801134    0.000000
   IC    4586.384642          0.000000    0.000000    1.000000


 Rotational constants
 --------------------

@    The molecule is planar.

               A                   B                   C

           6363.9808            112.1327            110.1912 MHz
            0.212280            0.003740            0.003676 cm-1


@  Nuclear repulsion energy :  704.495638200713 Hartree


                     .---------------------------------------.
                     | Starting in Integral Section (HERMIT) |
                     `---------------------------------------'



 ***************************************************************************************
 ****************** Output from **INTEGRALS input processing (HERMIT) ******************
 ***************************************************************************************


 - Using defaults, no **INTEGRALS input found

 Default print level:        1

 Calculation of one-electron Hamiltonian integrals.

 Center of mass  (bohr):     -0.197923758795     -0.164681770665      0.000000000000
 Operator center (bohr):      0.000000000000      0.000000000000      0.000000000000
 Gauge origin    (bohr):      0.000000000000      0.000000000000      0.000000000000
 Dipole origin   (bohr):      0.000000000000      0.000000000000      0.000000000000


     ************************************************************************
     ************************** Output from HERINT **************************
     ************************************************************************



                      Nuclear contribution to dipole moments
                      --------------------------------------

                 au               Debye          C m (/(10**-30)

      x     -0.00000010        -0.00000025        -0.00000085
      y      0.00000576         0.00001464         0.00004884
      z      0.00000000         0.00000000         0.00000000


  Time used in ONEDRV     is       1.31 seconds
  Time used in HUCKEL     is       0.35 seconds
  Time used in OVERLAP    is       0.19 seconds
  Time used in POPOVLP    is       0.37 seconds
  Time used in R2         is       0.24 seconds
  Time used in R4         is       0.29 seconds
  Time used in DIPLEN     is       0.31 seconds
  Time used in QUADRUP    is       0.63 seconds
  Time used in KINENE     is       0.34 seconds
  Time used in GABGEN     is       1.96 seconds
  Total CPU  time used in HERMIT:   6.00 seconds
  Total wall time used in HERMIT:   6.10 seconds


                        .----------------------------------.
                        | End of Integral Section (HERMIT) |
                        `----------------------------------'



                   .--------------------------------------------.
                   | Starting in Wave Function Section (SIRIUS) |
                   `--------------------------------------------'



@ Primary orbitals are deleted during canonical orthonormalization
@   because of detected numerical linear dependence or too large coefficients.
@ Eigenvalue threshold for num. lin. dep. =  1.00D-06

@   2 MO components are deleted in symmetry    1
 Overlap eigenvalues of the deleted orbitals:
  9.45D-07  4.42D-07

 Max MO coeff. of last deleted MO & limit:  4.72D+02  1.00D+03

WARNING: Orbitals have been deleted because of numerical
   linear dependence although not requested in input.

 *** Output from Huckel module :

     Using EWMO model:          T
     Using EHT  model:          F
     Number of Huckel orbitals each symmetry:   82

 EWMO - Energy Weighted Maximum Overlap - is a Huckel type method,
        which normally is better than Extended Huckel Theory.
 Reference: Linderberg and Ohrn, Propagators in Quantum Chemistry (Wiley, 1973)

 Huckel EWMO eigenvalues for symmetry :  1
          -20.684752     -20.683486     -15.677076     -15.674980     -11.359150
          -11.359082     -11.357769     -11.355196     -11.352150     -11.348123
          -11.346555     -11.345641     -11.345362     -11.345302      -1.964108
           -1.790031      -1.759034      -1.671445      -1.525369      -1.443608
           -1.340444      -1.181714      -1.160221      -1.085520      -0.995412
           -0.953581      -0.870160      -0.851985      -0.834962      -0.764582
           -0.761079      -0.727823      -0.693657      -0.681100      -0.645373
           -0.609220      -0.604855      -0.585238      -0.567776      -0.544141
           -0.521521      -0.520574      -0.505517      -0.494077      -0.484879
           -0.480611      -0.479444      -0.440146      -0.431877      -0.379599
           -0.376175      -0.334309      -0.281433      -0.244876      -0.229171
           -0.219702      -0.204256      -0.201181      -0.196150      -0.190466
           -0.166430      -0.142758      -0.138473      -0.131883      -0.129974
           -0.129105      -0.128790      -0.128093      -0.126029      -0.125571
           -0.124564      -0.123333      -0.109572      -0.106318      -0.100422
           -0.095501      -0.091917      -0.088850      -0.086677      -0.085099
           -0.082161      -0.079656

 **********************************************************************
 *SIRIUS* a direct, restricted step, second order MCSCF program       *
 **********************************************************************

 
     Date and time (Linux)  : Fri May  9 17:12:25 2025
     Host name              : xm046                                   

 Title lines from ".mol" input file:
     blah                                                                    
     blah                                                                    

 Print level on unit LUPRI =   2 is   0
 Print level on unit LUW4  =   2 is   5

@    Restricted, closed shell Hartree-Fock calculation.

@    Time-dependent Hartree-Fock calculation (random phase approximation).
 Fock matrices are calculated directly and in parallel without use of integrals on disk.

 Initial molecular orbitals are obtained according to
 ".MOSTART EWMO  " input option

     Wave function specification
     ============================
@    Wave function type        --- HF ---
@    Number of closed shell electrons         102
@    Number of electrons in active shells       0
@    Total charge of the molecule               0

@    Spin multiplicity and 2 M_S                1         0
@    Total number of symmetries                 1 (point group: C1 )
@    Reference state symmetry                   1 (irrep name : A  )

     Orbital specifications
     ======================
@    Abelian symmetry species          All |    1
@                                          |  A  
                                       --- |  ---
@    Occupied SCF orbitals              51 |   51
@    Secondary orbitals                867 |  867
@    Total number of orbitals          918 |  918
@    Number of basis functions         920 |  920

     Optimization information
     ========================
@    Number of configurations                 1
@    Number of orbital rotations          44217
     ------------------------------------------
@    Total number of variables            44218

     Maximum number of Fock   iterations      0
     Maximum number of DIIS   iterations     60
     Maximum number of QC-SCF iterations     60
     Threshold for SCF convergence     1.00D-05

    INFORMATION: Switched to "new" integral transformation (from 1988 ;-) )
    because more than 255 basis functions.


 ***********************************************
 ***** DIIS acceleration of SCF iterations *****
 ***********************************************

 C1-DIIS algorithm; max error vectors =    8

 Iter      Total energy        Error norm    Delta(E)  DIIS dim.
 -----------------------------------------------------------------------------
   1  Screening settings (-IFTHRS, JTDIIS, DIFDEN, times)   -9    1    T  3.05D+01  3.07D+01
@  1    -641.704792282        6.46499D+00   -6.42D+02    1
      Virial theorem: -V/T =      2.007606
@    MULPOP   C_a     0.37; C_b    -0.01; C_c    -0.03; C_d    -0.13; C_e     0.05; C_f    -0.07; C_g    -0.01; C_h    -0.05; C_i     0.04; C_j     0.18; 
@             N_a    -0.66; N_b     0.75; O_a    -0.94; O_b    -0.89; H_a     0.23; H_b     0.15; H_c     0.30; H_d     0.32; H_e    -0.01; H_f     0.05; 
@             H_g    -0.03; H_h    -0.00; H_i     0.00; H_j     0.05; H_k     0.06; H_l     0.30; 
   1  Level shift: doubly occupied orbital energies shifted by -2.00D-01
 -----------------------------------------------------------------------------
   2  Screening settings (-IFTHRS, JTDIIS, DIFDEN, times)   -9    2    T  2.64D+01  2.66D+01
@  2    -643.883664195        2.88563D+00   -2.18D+00    2
      Virial theorem: -V/T =      2.001698
@    MULPOP   C_a    -0.57; C_b     0.13; C_c    -0.05; C_d    -0.08; C_e     0.04; C_f    -0.04; C_g     0.09; C_h    -0.13; C_i     0.20; C_j    -0.92; 
@             N_a    -0.55; N_b     0.20; O_a    -0.32; O_b    -0.21; H_a     0.57; H_b     0.23; H_c     0.19; H_d     0.20; H_e     0.06; H_f     0.01; 
@             H_g     0.07; H_h     0.04; H_i     0.03; H_j     0.05; H_k     0.21; H_l     0.55; 
   2  Level shift: doubly occupied orbital energies shifted by -1.00D-01
 -----------------------------------------------------------------------------
   3  Screening settings (-IFTHRS, JTDIIS, DIFDEN, times)   -9    3    T  2.56D+01  2.58D+01
@  3    -644.272377569        7.82143D-01   -3.89D-01    3
      Virial theorem: -V/T =      2.001425
@    MULPOP   C_a    -0.46; C_b    -0.01; C_c    -0.01; C_d    -0.15; C_e     0.04; C_f    -0.09; C_g     0.06; C_h    -0.12; C_i     0.19; C_j    -0.69; 
@             N_a    -0.54; N_b     0.90; O_a    -0.70; O_b    -0.72; H_a     0.57; H_b     0.25; H_c     0.13; H_d     0.13; H_e     0.10; H_f     0.05; 
@             H_g     0.10; H_h     0.08; H_i     0.07; H_j     0.07; H_k     0.24; H_l     0.51; 
   3  Level shift: doubly occupied orbital energies shifted by -5.00D-02
 -----------------------------------------------------------------------------
   4  Screening settings (-IFTHRS, JTDIIS, DIFDEN, times)  -13    4    F  2.97D+01  3.00D+01
@  4    -644.312439479        2.43022D-01   -4.01D-02    4
      Virial theorem: -V/T =      2.003339
@    MULPOP   C_a    -0.42; C_b    -0.03; C_c     0.02; C_d    -0.15; C_e     0.08; C_f    -0.08; C_g     0.09; C_h    -0.14; C_i     0.19; C_j    -0.73; 
@             N_a    -0.55; N_b     0.74; O_a    -0.67; O_b    -0.64; H_a     0.57; H_b     0.23; H_c     0.11; H_d     0.11; H_e     0.09; H_f     0.05; 
@             H_g     0.09; H_h     0.08; H_i     0.08; H_j     0.08; H_k     0.28; H_l     0.52; 
   4  Level shift: doubly occupied orbital energies shifted by -2.50D-02
 -----------------------------------------------------------------------------
   5  Screening settings (-IFTHRS, JTDIIS, DIFDEN, times)  -13    5    T  2.88D+01  2.91D+01
@  5    -644.320109309        9.58066D-02   -7.67D-03    5
      Virial theorem: -V/T =      2.002703
@    MULPOP   C_a    -0.43; C_b    -0.04; C_c     0.00; C_d    -0.16; C_e     0.06; C_f    -0.10; C_g     0.07; C_h    -0.15; C_i     0.17; C_j    -0.72; 
@             N_a    -0.57; N_b     0.78; O_a    -0.67; O_b    -0.67; H_a     0.58; H_b     0.24; H_c     0.11; H_d     0.11; H_e     0.11; H_f     0.06; 
@             H_g     0.11; H_h     0.10; H_i     0.09; H_j     0.09; H_k     0.30; H_l     0.52; 
   5  Level shift: doubly occupied orbital energies shifted by -1.25D-02
 -----------------------------------------------------------------------------
   6  Screening settings (-IFTHRS, JTDIIS, DIFDEN, times)  -13    6    T  2.84D+01  2.87D+01
@  6    -644.322007087        4.61692D-02   -1.90D-03    6
      Virial theorem: -V/T =      2.002549
@    MULPOP   C_a    -0.44; C_b    -0.04; C_c    -0.00; C_d    -0.16; C_e     0.06; C_f    -0.10; C_g     0.08; C_h    -0.15; C_i     0.17; C_j    -0.73; 
@             N_a    -0.57; N_b     0.78; O_a    -0.67; O_b    -0.65; H_a     0.58; H_b     0.24; H_c     0.11; H_d     0.11; H_e     0.11; H_f     0.06; 
@             H_g     0.11; H_h     0.10; H_i     0.10; H_j     0.09; H_k     0.30; H_l     0.52; 
 -----------------------------------------------------------------------------
   7  Screening settings (-IFTHRS, JTDIIS, DIFDEN, times)  -13    7    T  2.82D+01  2.85D+01
@  7    -644.322520760        2.19500D-02   -5.14D-04    7
      Virial theorem: -V/T =      2.002595
@    MULPOP   C_a    -0.44; C_b    -0.03; C_c     0.00; C_d    -0.16; C_e     0.06; C_f    -0.10; C_g     0.08; C_h    -0.16; C_i     0.17; C_j    -0.73; 
@             N_a    -0.58; N_b     0.78; O_a    -0.66; O_b    -0.66; H_a     0.58; H_b     0.24; H_c     0.11; H_d     0.11; H_e     0.11; H_f     0.06; 
@             H_g     0.11; H_h     0.10; H_i     0.10; H_j     0.09; H_k     0.31; H_l     0.52; 
 -----------------------------------------------------------------------------
   8  Screening settings (-IFTHRS, JTDIIS, DIFDEN, times)  -13    8    T  2.80D+01  2.83D+01
@  8    -644.322628710        8.92376D-03   -1.08D-04    8
      Virial theorem: -V/T =      2.002592
@    MULPOP   C_a    -0.45; C_b    -0.03; C_c    -0.00; C_d    -0.16; C_e     0.06; C_f    -0.10; C_g     0.08; C_h    -0.15; C_i     0.17; C_j    -0.72; 
@             N_a    -0.58; N_b     0.78; O_a    -0.66; O_b    -0.66; H_a     0.58; H_b     0.24; H_c     0.11; H_d     0.11; H_e     0.10; H_f     0.06; 
@             H_g     0.11; H_h     0.10; H_i     0.10; H_j     0.09; H_k     0.31; H_l     0.52; 
 -----------------------------------------------------------------------------
   9  Screening settings (-IFTHRS, JTDIIS, DIFDEN, times)  -13    9    T  2.77D+01  2.79D+01
@  9    -644.322644445        3.16856D-03   -1.57D-05    8
      Virial theorem: -V/T =      2.002581
@    MULPOP   C_a    -0.45; C_b    -0.03; C_c    -0.00; C_d    -0.16; C_e     0.06; C_f    -0.10; C_g     0.08; C_h    -0.15; C_i     0.17; C_j    -0.72; 
@             N_a    -0.58; N_b     0.78; O_a    -0.66; O_b    -0.66; H_a     0.58; H_b     0.24; H_c     0.11; H_d     0.11; H_e     0.10; H_f     0.06; 
@             H_g     0.11; H_h     0.10; H_i     0.10; H_j     0.09; H_k     0.31; H_l     0.52; 
 -----------------------------------------------------------------------------
  10  Screening settings (-IFTHRS, JTDIIS, DIFDEN, times)  -13   10    T  2.73D+01  2.75D+01
@ 10    -644.322647380        1.61927D-03   -2.94D-06    8
      Virial theorem: -V/T =      2.002582
@    MULPOP   C_a    -0.45; C_b    -0.03; C_c    -0.00; C_d    -0.16; C_e     0.06; C_f    -0.10; C_g     0.08; C_h    -0.15; C_i     0.17; C_j    -0.72; 
@             N_a    -0.58; N_b     0.78; O_a    -0.66; O_b    -0.66; H_a     0.58; H_b     0.24; H_c     0.11; H_d     0.11; H_e     0.10; H_f     0.06; 
@             H_g     0.11; H_h     0.10; H_i     0.10; H_j     0.09; H_k     0.31; H_l     0.52; 
 -----------------------------------------------------------------------------
  11  Screening settings (-IFTHRS, JTDIIS, DIFDEN, times)  -13   11    T  2.69D+01  2.72D+01
@ 11    -644.322648283        9.21630D-04   -9.03D-07    8
      Virial theorem: -V/T =      2.002583
@    MULPOP   C_a    -0.45; C_b    -0.03; C_c    -0.00; C_d    -0.16; C_e     0.06; C_f    -0.10; C_g     0.08; C_h    -0.15; C_i     0.17; C_j    -0.72; 
@             N_a    -0.58; N_b     0.78; O_a    -0.66; O_b    -0.66; H_a     0.58; H_b     0.24; H_c     0.11; H_d     0.11; H_e     0.10; H_f     0.06; 
@             H_g     0.11; H_h     0.10; H_i     0.10; H_j     0.09; H_k     0.31; H_l     0.52; 
 -----------------------------------------------------------------------------
  12  Screening settings (-IFTHRS, JTDIIS, DIFDEN, times)  -13   12    T  2.67D+01  2.70D+01
@ 12    -644.322648575        2.81781D-04   -2.92D-07    8
      Virial theorem: -V/T =      2.002582
@    MULPOP   C_a    -0.45; C_b    -0.03; C_c    -0.00; C_d    -0.16; C_e     0.06; C_f    -0.10; C_g     0.08; C_h    -0.15; C_i     0.17; C_j    -0.72; 
@             N_a    -0.58; N_b     0.78; O_a    -0.66; O_b    -0.66; H_a     0.58; H_b     0.24; H_c     0.11; H_d     0.11; H_e     0.10; H_f     0.06; 
@             H_g     0.11; H_h     0.10; H_i     0.10; H_j     0.09; H_k     0.31; H_l     0.52; 
 -----------------------------------------------------------------------------
  13  Screening settings (-IFTHRS, JTDIIS, DIFDEN, times)  -13   13    T  2.62D+01  2.64D+01
@ 13    -644.322648604        1.21672D-04   -2.85D-08    8
      Virial theorem: -V/T =      2.002582
@    MULPOP   C_a    -0.45; C_b    -0.03; C_c    -0.00; C_d    -0.16; C_e     0.06; C_f    -0.10; C_g     0.08; C_h    -0.15; C_i     0.17; C_j    -0.72; 
@             N_a    -0.58; N_b     0.78; O_a    -0.66; O_b    -0.66; H_a     0.58; H_b     0.24; H_c     0.11; H_d     0.11; H_e     0.10; H_f     0.06; 
@             H_g     0.11; H_h     0.10; H_i     0.10; H_j     0.09; H_k     0.31; H_l     0.52; 
 -----------------------------------------------------------------------------
  14  Screening settings (-IFTHRS, JTDIIS, DIFDEN, times)  -13   14    T  2.54D+01  2.57D+01
@ 14    -644.322648606        3.95738D-05   -2.32D-09    8
      Virial theorem: -V/T =      2.002582
@    MULPOP   C_a    -0.45; C_b    -0.03; C_c    -0.00; C_d    -0.16; C_e     0.06; C_f    -0.10; C_g     0.08; C_h    -0.15; C_i     0.17; C_j    -0.72; 
@             N_a    -0.58; N_b     0.78; O_a    -0.66; O_b    -0.66; H_a     0.58; H_b     0.24; H_c     0.11; H_d     0.11; H_e     0.10; H_f     0.06; 
@             H_g     0.11; H_h     0.10; H_i     0.10; H_j     0.09; H_k     0.31; H_l     0.52; 
 -----------------------------------------------------------------------------
  15  Screening settings (-IFTHRS, JTDIIS, DIFDEN, times)  -13   15    T  2.49D+01  2.52D+01
@ 15    -644.322648606        1.66876D-05   -3.24D-10    8
      Virial theorem: -V/T =      2.002582
@    MULPOP   C_a    -0.45; C_b    -0.03; C_c    -0.00; C_d    -0.16; C_e     0.06; C_f    -0.10; C_g     0.08; C_h    -0.15; C_i     0.17; C_j    -0.72; 
@             N_a    -0.58; N_b     0.78; O_a    -0.66; O_b    -0.66; H_a     0.58; H_b     0.24; H_c     0.11; H_d     0.11; H_e     0.10; H_f     0.06; 
@             H_g     0.11; H_h     0.10; H_i     0.10; H_j     0.09; H_k     0.31; H_l     0.52; 
 -----------------------------------------------------------------------------
  16  Screening settings (-IFTHRS, JTDIIS, DIFDEN, times)  -13   16    T  2.48D+01  2.50D+01
@ 16    -644.322648607        7.43552D-06   -3.52D-11    8

@ *** DIIS converged in  16 iterations !
@     Converged SCF energy, gradient:   -644.322648606533    7.44D-06
    - total time used in SIRFCK :              0.00 seconds


 *** SCF orbital energy analysis ***

 Only the 20 lowest virtual orbital energies printed in each symmetry.

 Number of electrons :  102
 Orbital occupations :   51

 Sym       Hartree-Fock orbital energies

1 A     -20.58220631   -20.57944883   -15.83282431   -15.60259411   -11.31479754
        -11.28412164   -11.28140625   -11.27378051   -11.26758018   -11.26679310
        -11.25096850   -11.24433170   -11.23891592   -11.23617742    -1.57256268
         -1.37024520    -1.24791997    -1.13686665    -1.11583417    -1.08581791
         -1.04318565    -0.99016791    -0.93566795    -0.86292400    -0.81414288
         -0.78775222    -0.77607014    -0.76963629    -0.73472026    -0.72429215
         -0.70560884    -0.69064441    -0.68917682    -0.65896208    -0.63650187
         -0.61131608    -0.59669228    -0.56500390    -0.55649437    -0.54120158
         -0.53491336    -0.52464120    -0.51218695    -0.48968483    -0.47560344
         -0.47285672    -0.45489137    -0.43445706    -0.40199437    -0.33382985
         -0.25819382     0.01220283     0.02073511     0.02371352     0.02930513
          0.03298764     0.03882654     0.04851420     0.05547611     0.06572178
          0.07411605     0.07792317     0.08218932     0.08379919     0.08434999
          0.08840349     0.08977262     0.09052447     0.09526787     0.09538454
          0.10072788

    E(LUMO) :     0.01220283 au (symmetry 1)
  - E(HOMO) :    -0.25819382 au (symmetry 1)
  ------------------------------------------
    gap     :     0.27039665 au

 --- Writing SIRIFC interface file

 CPU and wall time for SCF :     529.397     533.977


                       .-----------------------------------.
                       | --- Final results from SIRIUS --- |
                       `-----------------------------------'


@    Spin multiplicity:           1
@    Spatial symmetry:            1 ( irrep  A   in C1  )
@    Total charge of molecule:    0

@    Final HF energy:            -644.322648606533                 
@    Nuclear repulsion:           704.495638200713
@    Electronic energy:         -1348.818286807246

@    Final gradient norm:           0.000007435516

 
     Date and time (Linux)  : Fri May  9 17:21:21 2025
     Host name              : xm046                                   

File label for MO orbitals:   9May25   FOCKDIIS

 (Only coefficients > 0.0100 are printed.)

 Molecular orbitals for symmetry species 1  (A  )
 ------------------------------------------------

    Orbital        42       43       44       45       46       47       48
   2 C_a :1s    -0.0333  -0.0050  -0.0000   0.0037   0.0005   0.0000  -0.0000
   4 C_a :1s     0.0346   0.0144   0.0000   0.0062  -0.0390   0.0000   0.0000
   5 C_a :1s     0.0178  -0.0027  -0.0000  -0.0466   0.0445   0.0000  -0.0000
   6 C_a :2px    0.1034   0.0158  -0.0000  -0.0059  -0.0006   0.0000   0.0000
   7 C_a :2py   -0.0708  -0.0325   0.0000  -0.0012  -0.0001  -0.0000   0.0000
   8 C_a :2pz    0.0000   0.0000   0.0433  -0.0000  -0.0000  -0.0122   0.0011
  12 C_a :2px   -0.0033  -0.0397  -0.0000  -0.0230   0.0096   0.0000  -0.0000
  13 C_a :2py   -0.0410  -0.0242   0.0000  -0.0030  -0.0121   0.0000  -0.0000
  15 C_a :2px    0.0011   0.0030  -0.0000   0.0158   0.0025   0.0000  -0.0000
  16 C_a :2py   -0.0003  -0.0058   0.0000   0.0064   0.0101  -0.0000   0.0000
  26 C_a :3d1+   0.0000  -0.0000   0.0038   0.0000   0.0000  -0.0136  -0.0008
  28 C_a :3d2-   0.0016   0.0329  -0.0000   0.0161   0.0055  -0.0000   0.0000
  32 C_a :3d2+  -0.0138  -0.0100   0.0000   0.0003  -0.0001  -0.0000   0.0000
  48 C_b :1s    -0.0378  -0.0601   0.0000  -0.0053  -0.0004  -0.0000  -0.0000
  50 C_b :1s     0.0956   0.0246  -0.0000  -0.0164  -0.0220   0.0000  -0.0000
  51 C_b :1s     0.0199   0.0413   0.0000  -0.1217  -0.0300  -0.0000  -0.0000
  52 C_b :2px   -0.0822   0.0178   0.0000   0.0084   0.0008  -0.0000  -0.0000
  53 C_b :2py    0.2463   0.2107   0.0000   0.0103   0.0006  -0.0000   0.0000
  54 C_b :2pz    0.0000  -0.0000  -0.0402   0.0000   0.0000   0.1651   0.0102
  58 C_b :2px   -0.0167  -0.0384  -0.0000   0.0002   0.0200   0.0000  -0.0000
  59 C_b :2py    0.0390   0.0120  -0.0000  -0.0050   0.0033  -0.0000  -0.0000
  61 C_b :2px   -0.0042   0.0077   0.0000  -0.0294  -0.0394   0.0000  -0.0000
  62 C_b :2py   -0.0021   0.0015   0.0000   0.0210  -0.0088  -0.0000   0.0000
  69 C_b :3d2-  -0.0104  -0.0127  -0.0000  -0.0002  -0.0000  -0.0000  -0.0000
  74 C_b :3d2-  -0.0004   0.0140   0.0000   0.0113   0.0118  -0.0000   0.0000
  75 C_b :3d1-   0.0000  -0.0000  -0.0177   0.0000   0.0000   0.0005  -0.0003
  77 C_b :3d1+   0.0000   0.0000  -0.0103  -0.0000  -0.0000  -0.0048   0.0003
  78 C_b :3d2+   0.0101  -0.0170  -0.0000  -0.0245   0.0189  -0.0000  -0.0000
  94 C_c :1s    -0.0514  -0.0516  -0.0000   0.0050   0.0008   0.0000   0.0000
  96 C_c :1s     0.0953   0.1346  -0.0000   0.0374   0.0180   0.0000  -0.0000
  97 C_c :1s    -0.0105   0.0106  -0.0000   0.0777   0.0120   0.0000  -0.0000
  98 C_c :2px    0.1412   0.1031   0.0000  -0.0138  -0.0023  -0.0000   0.0000
  99 C_c :2py   -0.2652  -0.2519  -0.0000  -0.0104  -0.0004   0.0000  -0.0000
 100 C_c :2pz    0.0000  -0.0000  -0.1464   0.0000   0.0000   0.3175   0.0153
 104 C_c :2px    0.0711   0.0010   0.0000  -0.0100   0.0081  -0.0000   0.0000
 105 C_c :2py   -0.0268  -0.0703  -0.0000  -0.0045   0.0121  -0.0000  -0.0000
 107 C_c :2px   -0.0070  -0.0167  -0.0000   0.1037   0.0328  -0.0000   0.0000
 108 C_c :2py   -0.0036  -0.0108  -0.0000   0.0997   0.0224   0.0000  -0.0000
 110 C_c :3d2-  -0.0117  -0.0142  -0.0000  -0.0007  -0.0000   0.0000  -0.0000
 115 C_c :3d2-  -0.0162  -0.0200  -0.0000  -0.0003  -0.0002   0.0000   0.0000
 118 C_c :3d1+  -0.0000   0.0000   0.0073   0.0000  -0.0000  -0.0151  -0.0006
 120 C_c :3d2-  -0.0101   0.0131   0.0000  -0.0179   0.0086  -0.0000  -0.0000
 123 C_c :3d1+   0.0000  -0.0000  -0.0202   0.0000   0.0000  -0.0099  -0.0021
 124 C_c :3d2+  -0.0053  -0.0562   0.0000  -0.0229   0.0003   0.0000  -0.0000
 140 C_d :1s     0.0005  -0.0672   0.0000  -0.0098  -0.0011   0.0000  -0.0000
 142 C_d :1s     0.1021   0.1863   0.0000  -0.0012   0.0263  -0.0000   0.0000
 143 C_d :1s    -0.0102  -0.0329  -0.0000   0.1193  -0.0543   0.0000   0.0000
 144 C_d :2px   -0.1689  -0.0974  -0.0000   0.0177   0.0027   0.0000   0.0000
 145 C_d :2py    0.1124   0.3706  -0.0000   0.0252   0.0011   0.0000  -0.0000
 146 C_d :2pz    0.0000   0.0000  -0.2166   0.0000   0.0000   0.3509   0.0135
 148 C_d :2py   -0.0041  -0.0101   0.0000  -0.0012   0.0000  -0.0000  -0.0000
 150 C_d :2px    0.0482  -0.0375   0.0000  -0.0291   0.0185  -0.0000   0.0000
 151 C_d :2py    0.0623   0.0456   0.0000  -0.0126   0.0067   0.0000   0.0000
 153 C_d :2px   -0.0046  -0.0095   0.0000  -0.0369  -0.0361   0.0000   0.0000
 154 C_d :2py   -0.0070   0.0029   0.0000  -0.0737  -0.0235   0.0000  -0.0000
 156 C_d :3d2-  -0.0077  -0.0168  -0.0000  -0.0006  -0.0000  -0.0000  -0.0000
 161 C_d :3d2-  -0.0079  -0.0248   0.0000  -0.0017  -0.0000   0.0000   0.0000
 166 C_d :3d2-  -0.0040  -0.0079  -0.0000  -0.0030  -0.0206   0.0000  -0.0000
 167 C_d :3d1-   0.0000  -0.0000  -0.0201   0.0000   0.0000  -0.0157  -0.0017
 169 C_d :3d1+   0.0000  -0.0000  -0.0155   0.0000   0.0000  -0.0137  -0.0030
 170 C_d :3d2+  -0.0073  -0.0488  -0.0000  -0.0216  -0.0222  -0.0000   0.0000
 186 C_e :1s    -0.0110  -0.0864  -0.0000   0.0100  -0.0005  -0.0000  -0.0000
 188 C_e :1s    -0.0446   0.1750   0.0000  -0.0809  -0.0106  -0.0000   0.0000
 189 C_e :1s     0.0101   0.0138   0.0000  -0.2075   0.0193   0.0000  -0.0000
 190 C_e :2px   -0.0907   0.0868   0.0000  -0.0305  -0.0024  -0.0000  -0.0000
 191 C_e :2py   -0.0253  -0.3628   0.0000  -0.0252  -0.0008  -0.0000   0.0000
 192 C_e :2pz   -0.0000   0.0000  -0.2905  -0.0000  -0.0000   0.2395   0.0021
 196 C_e :2px    0.0874   0.0378  -0.0000  -0.0054   0.0445   0.0000  -0.0000
 197 C_e :2py    0.0550  -0.0650   0.0000  -0.0253   0.0138   0.0000   0.0000
 199 C_e :2px   -0.0028  -0.0000  -0.0000   0.0381   0.0321  -0.0000  -0.0000
 200 C_e :2py    0.0039   0.0124   0.0000  -0.0769   0.0409  -0.0000  -0.0000
 202 C_e :3d2-   0.0026  -0.0171   0.0000  -0.0013  -0.0002  -0.0000   0.0000
 207 C_e :3d2-   0.0020  -0.0269  -0.0000   0.0001   0.0003   0.0000  -0.0000
 208 C_e :3d1-   0.0000  -0.0000  -0.0058  -0.0000  -0.0000   0.0101   0.0006
 210 C_e :3d1+  -0.0000   0.0000   0.0103   0.0000  -0.0000  -0.0018   0.0009
 212 C_e :3d2-  -0.0196  -0.0129  -0.0000   0.0603  -0.0448   0.0000  -0.0000
 213 C_e :3d1-   0.0000  -0.0000  -0.0012   0.0000   0.0000  -0.0180  -0.0004
 215 C_e :3d1+   0.0000  -0.0000  -0.0168   0.0000   0.0000  -0.0312   0.0001
 216 C_e :3d2+   0.0137  -0.0597  -0.0000  -0.0270  -0.0340   0.0000   0.0000
 232 C_f :1s     0.0402  -0.0439   0.0000  -0.0180  -0.0065   0.0000   0.0000
 234 C_f :1s    -0.0871   0.1589  -0.0000   0.0766   0.0408  -0.0000  -0.0000
 235 C_f :1s    -0.0057  -0.0006  -0.0000  -0.0500  -0.0019  -0.0000  -0.0000
 236 C_f :2px    0.0656  -0.1088  -0.0000   0.0359   0.0050   0.0000   0.0000
 237 C_f :2py   -0.2723   0.2687  -0.0000   0.0478   0.0129  -0.0000   0.0000
 238 C_f :2pz   -0.0000   0.0000  -0.3335  -0.0000  -0.0000   0.1079  -0.0059
 242 C_f :2px    0.0948   0.0004   0.0000   0.0444   0.0513   0.0000  -0.0000
 243 C_f :2py    0.0075   0.0682   0.0000  -0.0190   0.0073   0.0000   0.0000
 245 C_f :2px   -0.0104  -0.0193  -0.0000   0.1729  -0.0136  -0.0000   0.0000
 246 C_f :2py   -0.0012  -0.0156  -0.0000   0.1078  -0.0187  -0.0000   0.0000
 248 C_f :3d2-   0.0103  -0.0147   0.0000  -0.0011  -0.0005   0.0000  -0.0000
 253 C_f :3d2-   0.0142  -0.0208  -0.0000  -0.0017  -0.0031  -0.0000  -0.0000
 256 C_f :3d1+   0.0000  -0.0000  -0.0088   0.0000   0.0000   0.0101   0.0005
 258 C_f :3d2-   0.0061   0.0002  -0.0000   0.0401  -0.0149  -0.0000  -0.0000
 259 C_f :3d1-  -0.0000   0.0000  -0.0128  -0.0000  -0.0000  -0.0254  -0.0037
 261 C_f :3d1+   0.0000  -0.0000  -0.0100   0.0000   0.0000  -0.0313  -0.0018
 262 C_f :3d2+   0.0161  -0.0551   0.0000  -0.0460   0.0108  -0.0000  -0.0000
 278 C_g :1s     0.0572  -0.0735   0.0000   0.0243  -0.0082  -0.0000  -0.0000
 280 C_g :1s    -0.1562   0.0844  -0.0000   0.1182  -0.1713   0.0000  -0.0000
 281 C_g :1s    -0.0045  -0.0499  -0.0000   0.3335  -0.0610  -0.0000   0.0000
 282 C_g :2px   -0.1726   0.0063   0.0000  -0.0717   0.0181   0.0000   0.0000
 283 C_g :2py    0.2974  -0.2383   0.0000  -0.0465  -0.0177   0.0000  -0.0000
 284 C_g :2pz   -0.0000  -0.0000  -0.3472  -0.0000  -0.0000  -0.1335  -0.0133
 288 C_g :2px   -0.0125   0.0457   0.0000  -0.0783   0.0568  -0.0000   0.0000
 289 C_g :2py    0.0784  -0.0091  -0.0000  -0.0704  -0.0019   0.0000   0.0000
 290 C_g :2pz    0.0000   0.0000   0.0142   0.0000   0.0000   0.0003  -0.0060
 291 C_g :2px    0.0029   0.0186   0.0000  -0.1418   0.0205   0.0000   0.0000
 292 C_g :2py   -0.0091  -0.0009   0.0000  -0.0023  -0.0421   0.0000   0.0000
 293 C_g :2pz   -0.0000  -0.0000  -0.0061  -0.0000  -0.0000  -0.0029   0.0116
 294 C_g :3d2-   0.0153  -0.0097  -0.0000  -0.0019  -0.0016   0.0000   0.0000
 299 C_g :3d2-   0.0221  -0.0180   0.0000  -0.0048   0.0051  -0.0000   0.0000
 302 C_g :3d1+   0.0000  -0.0000   0.0102   0.0000   0.0000   0.0123   0.0012
 304 C_g :3d2-   0.0292  -0.0045   0.0000  -0.0448   0.0583   0.0000   0.0000
 305 C_g :3d1-   0.0000   0.0000   0.0072  -0.0000  -0.0000  -0.0258  -0.0063
 307 C_g :3d1+  -0.0000   0.0000  -0.0039  -0.0000  -0.0000  -0.0303  -0.0003
 308 C_g :3d2+   0.0206  -0.0393  -0.0000  -0.0293  -0.0155  -0.0000  -0.0000
 324 C_h :1s     0.0385  -0.0059  -0.0000  -0.0354  -0.0068   0.0000   0.0000
 326 C_h :1s    -0.1540   0.0848  -0.0000  -0.1447  -0.1212  -0.0000   0.0000
 327 C_h :1s     0.0169   0.0525   0.0000  -0.3277   0.2208  -0.0000  -0.0000
 328 C_h :2px    0.1808  -0.0330  -0.0000   0.0835  -0.0193  -0.0000  -0.0000
 329 C_h :2py   -0.2479   0.0908   0.0000   0.0829   0.0551   0.0000  -0.0000
 330 C_h :2pz    0.0000  -0.0000  -0.3383   0.0000   0.0000  -0.2627  -0.0155
 334 C_h :2px    0.0338   0.0181   0.0000  -0.0429   0.1489  -0.0000   0.0000
 335 C_h :2py   -0.0445   0.0330   0.0000   0.0401   0.1225   0.0000  -0.0000
 336 C_h :2pz   -0.0000   0.0000   0.0037  -0.0000  -0.0000  -0.0042   0.0134
 337 C_h :2px    0.0026   0.0026  -0.0000   0.0241   0.0885  -0.0000  -0.0000
 338 C_h :2py   -0.0010  -0.0075   0.0000   0.1151   0.0227  -0.0000  -0.0000
 340 C_h :3d2-   0.0142  -0.0064  -0.0000  -0.0011  -0.0023  -0.0000   0.0000
 345 C_h :3d2-   0.0187  -0.0091   0.0000  -0.0030   0.0022   0.0000   0.0000
 348 C_h :3d1+   0.0000  -0.0000  -0.0116   0.0000   0.0000  -0.0050  -0.0003
 350 C_h :3d2-   0.0172   0.0153   0.0000  -0.0346   0.0388  -0.0000   0.0000
 351 C_h :3d1-  -0.0000   0.0000  -0.0054   0.0000  -0.0000  -0.0133   0.0007
 352 C_h :3d0   -0.0066  -0.0003  -0.0000   0.0099  -0.0139  -0.0000   0.0000
 353 C_h :3d1+  -0.0000   0.0000   0.0006  -0.0000  -0.0000  -0.0301  -0.0015
 354 C_h :3d2+   0.0246  -0.0404   0.0000  -0.0465   0.0507  -0.0000  -0.0000
 370 C_i :1s     0.0646  -0.0414   0.0000   0.0296   0.0487  -0.0000  -0.0000
 372 C_i :1s    -0.0533  -0.0283  -0.0000   0.1674   0.2466   0.0000  -0.0000
 373 C_i :1s    -0.0087   0.0100   0.0000  -0.1873  -0.0809   0.0000  -0.0000
 374 C_i :2px   -0.0460  -0.0179  -0.0000  -0.1409  -0.0099   0.0000   0.0000
 375 C_i :2py    0.2116  -0.0783  -0.0000  -0.0754  -0.0800  -0.0000   0.0000
 376 C_i :2pz    0.0000  -0.0000  -0.2502   0.0000   0.0000  -0.3093  -0.0091
 380 C_i :2px   -0.0462   0.0222   0.0000  -0.0640   0.0013   0.0000   0.0000
 381 C_i :2py    0.0162   0.0015   0.0000   0.0333   0.1456  -0.0000  -0.0000
 382 C_i :2pz   -0.0000   0.0000   0.0054   0.0000  -0.0000   0.0100  -0.0291
 383 C_i :2px   -0.0116  -0.0100  -0.0000   0.1040  -0.1283   0.0000   0.0000
 384 C_i :2py   -0.0062  -0.0082  -0.0000   0.0473  -0.1178  -0.0000   0.0000
 385 C_i :2pz    0.0000  -0.0000  -0.0018   0.0000   0.0000  -0.0039  -0.0226
 391 C_i :3d2-   0.0128  -0.0057  -0.0000   0.0014  -0.0202   0.0000  -0.0000
 396 C_i :3d2-   0.0055   0.0002   0.0000   0.0491   0.0038   0.0000  -0.0000
 397 C_i :3d1-  -0.0000   0.0000   0.0182  -0.0000  -0.0000  -0.0106  -0.0072
 399 C_i :3d1+  -0.0000   0.0000   0.0038  -0.0000  -0.0000  -0.0137   0.0038
 400 C_i :3d2+   0.0024  -0.0161  -0.0000  -0.0526  -0.0343  -0.0000  -0.0000
 414 C_i :4f3+   0.0002   0.0021  -0.0000   0.0030  -0.0129  -0.0000   0.0000
 416 C_j :1s    -0.0002   0.0187   0.0000  -0.1031   0.0139  -0.0000  -0.0000
 418 C_j :1s    -0.0485   0.0155   0.0000  -0.0224  -0.0199  -0.0000   0.0000
 419 C_j :1s    -0.0174  -0.0298  -0.0000   0.5274  -0.1121  -0.0000   0.0000
 420 C_j :2px    0.0679   0.0002   0.0000   0.1569   0.0498  -0.0000  -0.0000
 421 C_j :2py   -0.0233  -0.0077  -0.0000   0.2751  -0.1473   0.0000   0.0000
 422 C_j :2pz    0.0000  -0.0000  -0.1815   0.0000   0.0000  -0.2711  -0.0183
 423 C_j :2px   -0.0022   0.0015   0.0000  -0.0154   0.0074  -0.0000   0.0000
 424 C_j :2py    0.0029  -0.0015   0.0000  -0.0261   0.0017   0.0000   0.0000
 426 C_j :2px   -0.0347   0.0321   0.0000  -0.1687  -0.1709   0.0000   0.0000
 427 C_j :2py   -0.0224   0.0116   0.0000  -0.0344   0.0469   0.0000  -0.0000
 428 C_j :2pz   -0.0000   0.0000   0.0177  -0.0000  -0.0000  -0.0050   0.0090
 429 C_j :2px    0.0052  -0.0078   0.0000   0.0793   0.0859  -0.0000  -0.0000
 430 C_j :2py    0.0019   0.0041  -0.0000  -0.0495   0.0846  -0.0000   0.0000
 431 C_j :2pz    0.0000  -0.0000  -0.0052  -0.0000   0.0000  -0.0061   0.0153
 440 C_j :3d1+   0.0000  -0.0000  -0.0100  -0.0000   0.0000  -0.0158   0.0045
 442 C_j :3d2-  -0.0117   0.0122  -0.0000   0.0597  -0.0125   0.0000  -0.0000
 443 C_j :3d1-  -0.0000   0.0000  -0.0130   0.0000   0.0000  -0.0069  -0.0059
 444 C_j :3d0    0.0028  -0.0013   0.0000  -0.0011   0.0170   0.0000  -0.0000
 445 C_j :3d1+   0.0000  -0.0000   0.0097  -0.0000  -0.0000  -0.0121   0.0308
 446 C_j :3d2+   0.0159  -0.0095   0.0000  -0.0667   0.0241   0.0000  -0.0000
 462 N_a :1s    -0.0216  -0.0195   0.0000  -0.0018  -0.0002   0.0000   0.0000
 465 N_a :1s    -0.0142  -0.0095   0.0000   0.0253  -0.0084  -0.0000   0.0000
 466 N_a :2px    0.0060   0.0261   0.0000   0.0032   0.0003  -0.0000  -0.0000
 467 N_a :2py    0.0410   0.0259  -0.0000   0.0020   0.0002   0.0000  -0.0000
 468 N_a :2pz   -0.0000   0.0000   0.1419  -0.0000  -0.0000  -0.2456  -0.0121
 477 N_a :2pz   -0.0000   0.0000   0.0042  -0.0000  -0.0000  -0.0110  -0.0000
 508 N_b :1s     0.0137  -0.0064   0.0000  -0.0266   0.0072   0.0000   0.0000
 510 N_b :1s     0.0137  -0.0046   0.0000  -0.1745   0.0329   0.0000   0.0000
 511 N_b :1s     0.0073   0.0071   0.0000  -0.3259   0.0874   0.0000   0.0000
 512 N_b :2px    0.0153  -0.0077   0.0000  -0.0884   0.1165  -0.0000   0.0000
 513 N_b :2py    0.0308   0.0004  -0.0000  -0.2622   0.0419   0.0000  -0.0000
 514 N_b :2pz    0.0000  -0.0000   0.0347  -0.0000   0.0000   0.0354  -0.0062
 518 N_b :2px   -0.0045   0.0012  -0.0000  -0.0115   0.0139   0.0000  -0.0000
 519 N_b :2py   -0.0092   0.0086   0.0000  -0.0481   0.0278  -0.0000   0.0000
 520 N_b :2pz   -0.0000   0.0000  -0.0123   0.0000  -0.0000  -0.0092   0.0001
 521 N_b :2px   -0.0064   0.0030   0.0000  -0.0419  -0.0894  -0.0000   0.0000
 522 N_b :2py    0.0003   0.0031   0.0000  -0.0692   0.0148   0.0000  -0.0000
 524 N_b :3d2-  -0.0006   0.0014  -0.0000  -0.0197  -0.0044  -0.0000   0.0000
 527 N_b :3d1+   0.0000  -0.0000  -0.0013   0.0000   0.0000  -0.0024   0.0182
 528 N_b :3d2+  -0.0002  -0.0001   0.0000   0.0113  -0.0162   0.0000   0.0000
 529 N_b :3d2-  -0.0001   0.0028  -0.0000  -0.0516  -0.0061  -0.0000  -0.0000
 530 N_b :3d1-  -0.0000   0.0000  -0.0064   0.0000  -0.0000  -0.0098  -0.0246
 532 N_b :3d1+  -0.0000   0.0000  -0.0041  -0.0000  -0.0000  -0.0075   0.0520
 533 N_b :3d2+  -0.0010  -0.0002   0.0000   0.0337  -0.0376   0.0000   0.0000
 534 N_b :3d2-   0.0092  -0.0057   0.0000   0.0328   0.0848   0.0000  -0.0000
 537 N_b :3d1+  -0.0000   0.0000  -0.0025  -0.0000  -0.0000  -0.0026  -0.0159
 538 N_b :3d2+   0.0026  -0.0031  -0.0000   0.0175   0.0862   0.0000  -0.0000
 552 N_b :4f3+  -0.0013   0.0002  -0.0000   0.0126  -0.0023  -0.0000  -0.0000
 554 O_a :1s     0.0121  -0.0015  -0.0000  -0.0092   0.0027  -0.0000  -0.0000
 556 O_a :1s     0.0070  -0.0008   0.0000   0.0034   0.0562   0.0000  -0.0000
 557 O_a :1s     0.0053  -0.0029   0.0000   0.0512   0.0745   0.0000  -0.0000
 558 O_a :2px   -0.0088   0.0059  -0.0000   0.1131  -0.6810   0.0000  -0.0000
 559 O_a :2py   -0.0158  -0.0145  -0.0000   0.4015  -0.4344   0.0000   0.0000
 560 O_a :2pz   -0.0000   0.0000   0.0566  -0.0000  -0.0000   0.0656   0.6474
 564 O_a :2px   -0.0009  -0.0010   0.0000   0.0182  -0.0825  -0.0000   0.0000
 565 O_a :2py   -0.0014   0.0008   0.0000   0.0206  -0.0559  -0.0000  -0.0000
 566 O_a :2pz    0.0000  -0.0000   0.0057   0.0000   0.0000   0.0044   0.0621
 567 O_a :2px   -0.0002  -0.0002  -0.0000   0.0152  -0.0487   0.0000  -0.0000
 568 O_a :2py   -0.0002  -0.0013  -0.0000   0.0328  -0.0183   0.0000   0.0000
 569 O_a :2pz   -0.0000   0.0000  -0.0007  -0.0000  -0.0000   0.0020   0.0471
 576 O_a :3d1-  -0.0000   0.0000   0.0015  -0.0000  -0.0000   0.0012   0.0141
 579 O_a :3d2+  -0.0006   0.0005   0.0000  -0.0054   0.0133  -0.0000   0.0000
 580 O_a :3d2-  -0.0002  -0.0001   0.0000  -0.0013  -0.0156  -0.0000   0.0000
 581 O_a :3d1-   0.0000  -0.0000   0.0023   0.0000   0.0000   0.0016   0.0183
 582 O_a :3d0    0.0008  -0.0003  -0.0000  -0.0016   0.0101   0.0000   0.0000
 584 O_a :3d2+   0.0001   0.0004  -0.0000  -0.0084   0.0291   0.0000  -0.0000
 602 O_b :1s    -0.0036   0.0016  -0.0000  -0.0128  -0.0285   0.0000  -0.0000
 603 O_b :1s    -0.0067   0.0009  -0.0000   0.0278  -0.0955  -0.0000   0.0000
 604 O_b :2px   -0.0142   0.0063  -0.0000   0.1253  -0.2334   0.0000  -0.0000
 605 O_b :2py    0.0632  -0.0608   0.0000   0.7473   0.4525  -0.0000   0.0000
 606 O_b :2pz    0.0000   0.0000   0.0709   0.0000  -0.0000   0.1130  -0.6375
 611 O_b :2py    0.0072  -0.0066  -0.0000   0.0707   0.0660   0.0000  -0.0000
 612 O_b :2pz   -0.0000   0.0000   0.0056  -0.0000   0.0000   0.0063  -0.0616
 613 O_b :2px   -0.0014   0.0004  -0.0000   0.0101  -0.0233   0.0000  -0.0000
 614 O_b :2py    0.0041  -0.0044   0.0000   0.0526   0.0430  -0.0000   0.0000
 615 O_b :2pz   -0.0000   0.0000   0.0011   0.0000  -0.0000   0.0047  -0.0443
 621 O_b :3d2-   0.0020  -0.0014   0.0000   0.0104   0.0093  -0.0000   0.0000
 624 O_b :3d1+  -0.0000   0.0000   0.0027   0.0000  -0.0000   0.0033  -0.0168
 625 O_b :3d2+  -0.0003   0.0003  -0.0000   0.0045  -0.0106  -0.0000  -0.0000
 626 O_b :3d2-   0.0027  -0.0023  -0.0000   0.0233   0.0225   0.0000  -0.0000
 629 O_b :3d1+  -0.0000   0.0000   0.0026  -0.0000  -0.0000   0.0022  -0.0197
 645 H_a :1s     0.1351   0.0607  -0.0000   0.0007   0.0001   0.0000  -0.0000
 646 H_a :1s    -0.0289  -0.0118   0.0000   0.0018  -0.0009  -0.0000   0.0000
 647 H_a :1s    -0.0709   0.0478   0.0000   0.0499  -0.0028  -0.0000   0.0000
 655 H_a :2px    0.0111   0.0022  -0.0000  -0.0010  -0.0001   0.0000  -0.0000
 656 H_a :2py   -0.0047   0.0169   0.0000   0.0102  -0.0004  -0.0000   0.0000
 668 H_b :1s     0.2896   0.1847  -0.0000   0.0020  -0.0002  -0.0000   0.0000
 669 H_b :1s    -0.0543  -0.0369  -0.0000   0.0023   0.0013   0.0000  -0.0000
 670 H_b :1s    -0.1235  -0.0784   0.0000   0.0065   0.0447   0.0000  -0.0000
 671 H_b :1s     0.0012   0.0033  -0.0000  -0.0263  -0.0008   0.0000  -0.0000
 678 H_b :2px   -0.0059  -0.0144   0.0000  -0.0078   0.0048   0.0000  -0.0000
 679 H_b :2py    0.0184   0.0061   0.0000  -0.0054  -0.0070  -0.0000  -0.0000
 691 H_c :1s     0.0396   0.0102  -0.0000  -0.0003  -0.0000   0.0000  -0.0000
 714 H_d :1s    -0.0114   0.0177   0.0000   0.0030   0.0003  -0.0000  -0.0000
 716 H_d :1s     0.0131  -0.0025  -0.0000  -0.0082  -0.0009   0.0000  -0.0000
 723 H_d :2pz    0.0000  -0.0000   0.0063  -0.0000   0.0000  -0.0102  -0.0005
 737 H_e :1s     0.3321   0.3185   0.0000   0.0064  -0.0005  -0.0000   0.0000
 738 H_e :1s    -0.0667  -0.0658  -0.0000  -0.0024  -0.0006   0.0000  -0.0000
 739 H_e :1s    -0.1735  -0.1546  -0.0000  -0.0516   0.0282   0.0000  -0.0000
 740 H_e :1s     0.0038   0.0039  -0.0000   0.0148  -0.0080   0.0000  -0.0000
 747 H_e :2px    0.0194   0.0326   0.0000   0.0102  -0.0036   0.0000   0.0000
 748 H_e :2py   -0.0224  -0.0067   0.0000  -0.0014   0.0031  -0.0000  -0.0000
 760 H_f :1s     0.2240   0.4148  -0.0000   0.0082  -0.0013   0.0000  -0.0000
 761 H_f :1s    -0.0439  -0.0857   0.0000  -0.0039   0.0020  -0.0000   0.0000
 762 H_f :1s    -0.1102  -0.2244  -0.0000  -0.0376  -0.0468  -0.0000   0.0000
 763 H_f :1s     0.0037  -0.0013   0.0000   0.0354  -0.0083  -0.0000   0.0000
 770 H_f :2px   -0.0104  -0.0360  -0.0000  -0.0104  -0.0115  -0.0000   0.0000
 771 H_f :2py    0.0139   0.0202   0.0000   0.0014   0.0049   0.0000  -0.0000
 783 H_g :1s    -0.0477   0.3949  -0.0000   0.0131   0.0005   0.0000  -0.0000
 784 H_g :1s     0.0094  -0.0843   0.0000   0.0026   0.0004  -0.0000   0.0000
 785 H_g :1s    -0.0151  -0.2331  -0.0000   0.0967  -0.1036   0.0000   0.0000
 786 H_g :1s     0.0002   0.0038   0.0000  -0.0371   0.0210   0.0000   0.0000
 793 H_g :2px   -0.0009   0.0419   0.0000   0.0086   0.0136  -0.0000   0.0000
 794 H_g :2py   -0.0055  -0.0184  -0.0000   0.0279  -0.0109   0.0000   0.0000
 806 H_h :1s    -0.2881   0.3365  -0.0000   0.0115   0.0083  -0.0000   0.0000
 807 H_h :1s     0.0578  -0.0697   0.0000  -0.0016  -0.0067  -0.0000  -0.0000
 808 H_h :1s     0.1547  -0.1763  -0.0000   0.0767  -0.0082   0.0000  -0.0000
 809 H_h :1s    -0.0057   0.0019  -0.0000  -0.0267   0.0072   0.0000  -0.0000
 816 H_h :2px    0.0183  -0.0337   0.0000  -0.0156  -0.0026  -0.0000  -0.0000
 817 H_h :2py   -0.0187   0.0106   0.0000  -0.0245  -0.0022  -0.0000   0.0000
 829 H_i :1s    -0.3867   0.2123   0.0000   0.0144   0.0293  -0.0000  -0.0000
 830 H_i :1s     0.0821  -0.0460   0.0000  -0.0122   0.0092   0.0000   0.0000
 831 H_i :1s     0.2452  -0.1121   0.0000  -0.1302   0.0533   0.0000   0.0000
 832 H_i :1s    -0.0039  -0.0032  -0.0000   0.0439  -0.0295  -0.0000  -0.0000
 839 H_i :2px   -0.0245   0.0267   0.0000   0.0281   0.0070  -0.0000   0.0000
 840 H_i :2py    0.0316  -0.0040   0.0000  -0.0032   0.0174   0.0000   0.0000
 852 H_j :1s    -0.3573   0.1244   0.0000   0.0001   0.0620   0.0000  -0.0000
 853 H_j :1s     0.0735  -0.0275  -0.0000   0.0062  -0.0035  -0.0000   0.0000
 854 H_j :1s     0.2036  -0.0400   0.0000  -0.0992   0.0648  -0.0000   0.0000
 855 H_j :1s     0.0007   0.0036  -0.0000  -0.0122   0.0060  -0.0000   0.0000
 862 H_j :2px    0.0243  -0.0142   0.0000  -0.0317   0.0063  -0.0000  -0.0000
 863 H_j :2py   -0.0218  -0.0068  -0.0000   0.0010  -0.0142   0.0000  -0.0000
 875 H_k :1s    -0.2043   0.0423  -0.0000   0.0186   0.0514   0.0000  -0.0000
 876 H_k :1s     0.0411  -0.0085  -0.0000   0.0053  -0.0459  -0.0000   0.0000
 877 H_k :1s     0.1110  -0.0322  -0.0000   0.1361   0.0711  -0.0000  -0.0000
 878 H_k :1s    -0.0010   0.0003   0.0000  -0.0266   0.0070   0.0000   0.0000
 885 H_k :2px   -0.0105   0.0106   0.0000   0.0143   0.0100   0.0000   0.0000
 886 H_k :2py    0.0138  -0.0001   0.0000   0.0451   0.0341   0.0000   0.0000
 898 H_l :1s    -0.0874   0.0097  -0.0000   0.0781  -0.1449   0.0000   0.0000
 899 H_l :1s     0.0185  -0.0019   0.0000  -0.0034   0.0243   0.0000  -0.0000
 900 H_l :1s     0.0012   0.0379   0.0000  -0.0061  -0.0861   0.0000   0.0000
 901 H_l :1s     0.0005  -0.0039   0.0000   0.0335   0.0052  -0.0000  -0.0000
 908 H_l :2px    0.0011   0.0036   0.0000  -0.0242  -0.0191   0.0000   0.0000
 909 H_l :2py    0.0069  -0.0098   0.0000  -0.0181   0.0243   0.0000  -0.0000
 910 H_l :2pz    0.0000  -0.0000   0.0110  -0.0000   0.0000  -0.0026   0.0161

    Orbital        49       50       51       52       53       54       55
   2 C_a :1s     0.0000   0.0000  -0.0000   0.0235  -0.0276   0.0000  -0.0071
   4 C_a :1s     0.0000   0.0000  -0.0000  -1.9285   0.1371  -0.0000  -0.5546
   5 C_a :1s     0.0000   0.0000   0.0000   1.4121  16.8314  -0.0000  -9.7703
   6 C_a :2px   -0.0000  -0.0000   0.0000   0.0069  -0.0269   0.0000  -0.0194
   7 C_a :2py    0.0000  -0.0000  -0.0000  -0.0635   0.0314   0.0000   0.0019
   8 C_a :2pz   -0.0846   0.1987  -0.2614  -0.0000   0.0000  -0.2071  -0.0000
   9 C_a :2px    0.0000   0.0000  -0.0000   0.0162  -0.0257  -0.0000   0.0146
  10 C_a :2py    0.0000   0.0000  -0.0000   0.0310  -0.0101   0.0000  -0.0024
  12 C_a :2px   -0.0000   0.0000   0.0000   0.7208   0.3992   0.0000  -1.1407
  13 C_a :2py   -0.0000   0.0000  -0.0000  -1.0459  -0.1835  -0.0000   0.9665
  14 C_a :2pz   -0.0017  -0.0006  -0.0046   0.0000  -0.0000  -0.0371   0.0000
  15 C_a :2px   -0.0000  -0.0000   0.0000   4.0839  -3.5216   0.0000   2.4217
  16 C_a :2py    0.0000   0.0000  -0.0000   1.9586   2.2178   0.0000   0.5293
  17 C_a :2pz   -0.0040   0.0106  -0.0254  -0.0000   0.0000  -0.1781  -0.0000
  21 C_a :3d1+   0.0089  -0.0110   0.0101  -0.0000  -0.0000   0.0018  -0.0000
  23 C_a :3d2-   0.0000   0.0000  -0.0000   0.1019   0.0046   0.0000   0.0434
  24 C_a :3d1-   0.0106  -0.0118   0.0108  -0.0000   0.0000   0.0014   0.0000
  25 C_a :3d0   -0.0000  -0.0000   0.0000   0.0239   0.0043  -0.0000   0.0416
  26 C_a :3d1+   0.0234  -0.0283   0.0248   0.0000   0.0000  -0.0007   0.0000
  27 C_a :3d2+   0.0000  -0.0000   0.0000   0.0158  -0.0191  -0.0000   0.0220
  28 C_a :3d2-   0.0000   0.0000   0.0000   1.1298   0.0667  -0.0000   0.5666
  29 C_a :3d1-   0.0047  -0.0065   0.0087  -0.0000  -0.0000  -0.0165   0.0000
  30 C_a :3d0    0.0000  -0.0000   0.0000   0.1284  -0.0027  -0.0000   0.3899
  31 C_a :3d1+   0.0084  -0.0149   0.0129  -0.0000   0.0000  -0.0250   0.0000
  32 C_a :3d2+   0.0000   0.0000  -0.0000   0.1253  -0.3786  -0.0000   0.1320
  40 C_a :4f3-   0.0000  -0.0000  -0.0000  -0.0294   0.0002   0.0000  -0.0336
  42 C_a :4f1-   0.0000  -0.0000   0.0000   0.0004  -0.0121  -0.0000  -0.0284
  44 C_a :4f1+   0.0000   0.0000  -0.0000  -0.0170  -0.0177  -0.0000   0.0187
  46 C_a :4f3+  -0.0000  -0.0000  -0.0000   0.0128  -0.0106  -0.0000   0.0625
  48 C_b :1s     0.0000   0.0000   0.0000   0.0189   0.0322  -0.0000  -0.0099
  50 C_b :1s     0.0000  -0.0000   0.0000   0.0727  -0.8500  -0.0000   0.7705
  51 C_b :1s     0.0000  -0.0000  -0.0000   0.4996 -21.3018   0.0000   6.9773
  52 C_b :2px    0.0000   0.0000  -0.0000  -0.0109  -0.0199   0.0000   0.0135
  53 C_b :2py    0.0000   0.0000   0.0000   0.0252   0.0334   0.0000  -0.0257
  54 C_b :2pz   -0.2945   0.3550  -0.2987   0.0000   0.0000  -0.0009   0.0000
  55 C_b :2px   -0.0000  -0.0000  -0.0000   0.0232   0.0519   0.0000   0.0193
  56 C_b :2py   -0.0000   0.0000  -0.0000  -0.0229   0.0012   0.0000   0.0148
  58 C_b :2px   -0.0000  -0.0000   0.0000   0.6685   0.5161   0.0000  -0.0491
  59 C_b :2py   -0.0000  -0.0000  -0.0000   0.5446  -0.5060   0.0000  -0.9362
  60 C_b :2pz   -0.0074   0.0250  -0.0292  -0.0000  -0.0000   0.0030   0.0000
  61 C_b :2px   -0.0000   0.0000  -0.0000   0.7991  -3.8831   0.0000   3.5369
  62 C_b :2py    0.0000   0.0000   0.0000   1.3372   2.5780   0.0000  -0.7064
  63 C_b :2pz   -0.0097   0.0244  -0.0464   0.0000   0.0000   0.0213   0.0000
  69 C_b :3d2-   0.0000   0.0000   0.0000   0.0747   0.0256  -0.0000   0.0586
  70 C_b :3d1-   0.0114  -0.0032  -0.0080  -0.0000  -0.0000  -0.0118  -0.0000
  71 C_b :3d0   -0.0000  -0.0000  -0.0000  -0.0175   0.0279   0.0000  -0.0031
  72 C_b :3d1+  -0.0003   0.0105  -0.0198   0.0000  -0.0000  -0.0205  -0.0000
  73 C_b :3d2+   0.0000   0.0000  -0.0000   0.0251   0.0443  -0.0000   0.0230
  74 C_b :3d2-   0.0000  -0.0000   0.0000   1.7083   0.4296  -0.0000   0.0994
  75 C_b :3d1-   0.0067  -0.0107  -0.0017   0.0000   0.0000  -0.0169   0.0000
  76 C_b :3d0   -0.0000  -0.0000   0.0000  -0.1566   0.2754   0.0000   0.0420
  77 C_b :3d1+   0.0029   0.0017  -0.0109  -0.0000   0.0000  -0.0436   0.0000
  78 C_b :3d2+   0.0000   0.0000  -0.0000   0.5036  -0.0086   0.0000  -1.0769
  86 C_b :4f3-  -0.0000   0.0000   0.0000   0.0689   0.0084  -0.0000   0.0165
  88 C_b :4f1-  -0.0000   0.0000   0.0000  -0.0106   0.0160  -0.0000   0.0222
  92 C_b :4f3+   0.0000   0.0000  -0.0000   0.0004  -0.0601  -0.0000   0.0281
  94 C_c :1s    -0.0000  -0.0000  -0.0000  -0.0024  -0.0266   0.0000  -0.0249
  96 C_c :1s    -0.0000  -0.0000   0.0000  -0.5887   0.2795   0.0000   0.1706
  97 C_c :1s    -0.0000   0.0000  -0.0000  -0.8832  18.8049  -0.0000  -2.8939
  98 C_c :2px    0.0000  -0.0000   0.0000   0.0025  -0.0217  -0.0000  -0.0222
  99 C_c :2py   -0.0000  -0.0000   0.0000  -0.0262   0.0291   0.0000   0.0305
 100 C_c :2pz   -0.2812   0.0152   0.2666  -0.0000  -0.0000   0.2720  -0.0000
 101 C_c :2px   -0.0000  -0.0000  -0.0000  -0.0223  -0.0110   0.0000  -0.0383
 102 C_c :2py   -0.0000  -0.0000   0.0000  -0.0061   0.0032   0.0000  -0.0390
 104 C_c :2px   -0.0000   0.0000  -0.0000   0.4219   0.6198   0.0000  -0.3886
 105 C_c :2py   -0.0000   0.0000  -0.0000  -0.2774  -0.5416   0.0000   0.5206
 106 C_c :2pz    0.0091  -0.0073   0.0138   0.0000   0.0000   0.0324   0.0000
 107 C_c :2px    0.0000  -0.0000   0.0000   4.2502  -1.6755  -0.0000   0.2420
 108 C_c :2py   -0.0000  -0.0000   0.0000   2.0413   1.1506   0.0000   0.8357
 109 C_c :2pz   -0.0059   0.0013   0.0316  -0.0000  -0.0000   0.1682  -0.0000
 113 C_c :3d1+   0.0008   0.0076  -0.0112  -0.0000  -0.0000   0.0007  -0.0000
 115 C_c :3d2-   0.0000   0.0000  -0.0000  -0.0545   0.0156   0.0000  -0.0099
 116 C_c :3d1-  -0.0087   0.0123  -0.0119  -0.0000  -0.0000   0.0014  -0.0000
 117 C_c :3d0    0.0000   0.0000   0.0000   0.0005  -0.0235  -0.0000   0.0197
 118 C_c :3d1+   0.0023   0.0196  -0.0268   0.0000   0.0000   0.0041   0.0000
 119 C_c :3d2+   0.0000   0.0000  -0.0000  -0.0242  -0.0109  -0.0000   0.0224
 120 C_c :3d2-   0.0000   0.0000  -0.0000  -0.0916  -0.0054   0.0000  -1.6311
 121 C_c :3d1-   0.0082  -0.0088  -0.0046  -0.0000   0.0000  -0.0268  -0.0000
 122 C_c :3d0    0.0000  -0.0000   0.0000  -0.1142  -0.3374  -0.0000   0.2582
 123 C_c :3d1+   0.0128  -0.0088  -0.0092  -0.0000   0.0000  -0.0122  -0.0000
 124 C_c :3d2+   0.0000  -0.0000  -0.0000   0.4378  -0.2591  -0.0000  -0.8117
 132 C_c :4f3-   0.0000  -0.0000   0.0000   0.0306   0.0034  -0.0000   0.0230
 134 C_c :4f1-  -0.0000   0.0000   0.0000   0.0086   0.0061  -0.0000  -0.0206
 136 C_c :4f1+   0.0000   0.0000  -0.0000  -0.0130  -0.0166   0.0000  -0.0018
 138 C_c :4f3+   0.0000  -0.0000  -0.0000  -0.0033  -0.0706  -0.0000   0.0144
 140 C_d :1s     0.0000   0.0000   0.0000   0.0029   0.0147  -0.0000  -0.0152
 142 C_d :1s     0.0000   0.0000   0.0000   0.5523  -1.1067   0.0000   1.1148
 143 C_d :1s     0.0000  -0.0000   0.0000   4.0218 -15.1862   0.0000  -2.2334
 144 C_d :2px   -0.0000   0.0000  -0.0000  -0.0023  -0.0132   0.0000   0.0218
 145 C_d :2py   -0.0000  -0.0000   0.0000   0.0052   0.0234   0.0000  -0.0331
 146 C_d :2pz   -0.1296  -0.2270   0.3511   0.0000   0.0000  -0.0759   0.0000
 147 C_d :2px   -0.0000  -0.0000   0.0000   0.0111  -0.0087  -0.0000   0.0025
 148 C_d :2py   -0.0000  -0.0000   0.0000  -0.0022  -0.0113   0.0000   0.0246
 150 C_d :2px    0.0000   0.0000  -0.0000  -0.2159   0.7921   0.0000   0.4440
 151 C_d :2py    0.0000   0.0000  -0.0000   0.6971  -0.0184   0.0000  -1.1490
 152 C_d :2pz   -0.0066  -0.0122   0.0330  -0.0000  -0.0000  -0.0054  -0.0000
 153 C_d :2px   -0.0000  -0.0000   0.0000   2.0190  -0.6621  -0.0000   0.4988
 154 C_d :2py   -0.0000  -0.0000   0.0000   0.2319   1.6152   0.0000   0.3906
 155 C_d :2pz   -0.0054  -0.0165   0.0568   0.0000   0.0000  -0.0405   0.0000
 161 C_d :3d2-   0.0000   0.0000  -0.0000  -0.0464   0.0165   0.0000  -0.0204
 162 C_d :3d1-  -0.0062   0.0102   0.0070  -0.0000   0.0000   0.0145   0.0000
 163 C_d :3d0   -0.0000  -0.0000  -0.0000  -0.0170   0.0135  -0.0000   0.0104
 164 C_d :3d1+  -0.0155   0.0036   0.0200   0.0000   0.0000   0.0229   0.0000
 165 C_d :3d2+  -0.0000  -0.0000   0.0000  -0.0011  -0.0152   0.0000  -0.0177
 166 C_d :3d2-  -0.0000  -0.0000  -0.0000  -0.8409   0.2734   0.0000  -1.2321
 168 C_d :3d0   -0.0000   0.0000   0.0000  -0.0853   0.1819  -0.0000   0.2101
 169 C_d :3d1+   0.0108  -0.0121   0.0096  -0.0000   0.0000   0.0094  -0.0000
 170 C_d :3d2+  -0.0000  -0.0000   0.0000  -0.2083   0.1712  -0.0000  -0.6203
 178 C_d :4f3-   0.0000   0.0000  -0.0000  -0.0131   0.0136   0.0000  -0.0060
 180 C_d :4f1-  -0.0000  -0.0000   0.0000  -0.0172   0.0035  -0.0000   0.0218
 182 C_d :4f1+  -0.0000  -0.0000   0.0000   0.0047  -0.0135   0.0000  -0.0047
 184 C_d :4f3+   0.0000   0.0000  -0.0000   0.0143  -0.0585   0.0000  -0.0181
 186 C_e :1s    -0.0000  -0.0000  -0.0000   0.0009  -0.0101   0.0000  -0.0223
 188 C_e :1s     0.0000  -0.0000  -0.0000   0.9310   0.6363   0.0000  -0.2888
 189 C_e :1s    -0.0000  -0.0000   0.0000  -2.2942  14.3161   0.0000   5.2146
 190 C_e :2px    0.0000  -0.0000   0.0000   0.0031  -0.0165  -0.0000  -0.0232
 191 C_e :2py    0.0000   0.0000  -0.0000  -0.0093   0.0238  -0.0000   0.0369
 192 C_e :2pz    0.2081  -0.2494  -0.2069  -0.0000  -0.0000  -0.3167  -0.0000
 193 C_e :2px   -0.0000  -0.0000  -0.0000  -0.0076   0.0121  -0.0000   0.0108
 194 C_e :2py   -0.0000  -0.0000  -0.0000   0.0045  -0.0007  -0.0000  -0.0214
 196 C_e :2px    0.0000  -0.0000   0.0000   0.1249   0.5886   0.0000  -0.6848
 197 C_e :2py    0.0000   0.0000  -0.0000   0.0182   0.0796  -0.0000   0.5987
 198 C_e :2pz    0.0069   0.0059  -0.0132   0.0000   0.0000  -0.0278   0.0000
 199 C_e :2px    0.0000   0.0000   0.0000   1.9400  -4.5307   0.0000   0.1507
 200 C_e :2py    0.0000   0.0000  -0.0000   0.3419   0.1518   0.0000   2.7979
 201 C_e :2pz    0.0063  -0.0147  -0.0323  -0.0000  -0.0000  -0.1923  -0.0000
 205 C_e :3d1+  -0.0079   0.0003   0.0113  -0.0000  -0.0000  -0.0029  -0.0000
 207 C_e :3d2-  -0.0000  -0.0000   0.0000  -0.0082  -0.0271   0.0000   0.0133
[...]

       No.  Residual tot.,    conf., and orb.    Bnorm      Frequency 
      ----------------------------------------------------------------
         1    5.96054D-02  0.00D+00  5.96D-02  2.36D+01    0.00000D+00
         2    6.19858D-02  0.00D+00  6.20D-02  2.45D+01    2.15000D-02
         3    7.02396D-02  0.00D+00  7.02D-02  2.74D+01    4.30000D-02

 ** RSPCTL MICROITERATION NUMBER    7

       No.  Residual tot.,    conf., and orb.    Bnorm      Frequency 
      ----------------------------------------------------------------
         1    2.04457D-02  0.00D+00  2.04D-02  2.36D+01    0.00000D+00
         2    2.12881D-02  0.00D+00  2.13D-02  2.45D+01    2.15000D-02
         3    2.42071D-02  0.00D+00  2.42D-02  2.74D+01    4.30000D-02

 *** THE REQUESTED    3 SOLUTION VECTORS CONVERGED

 Convergence of RSP solution vectors, threshold = 1.00D-03
 ---------------------------------------------------------------
 (dimension of paired reduced space:   42)
 RSP solution vector no.    1; norm of residual   8.67D-04
 RSP solution vector no.    2; norm of residual   8.71D-04
 RSP solution vector no.    3; norm of residual   8.85D-04

 *** RSPCTL MICROITERATIONS CONVERGED

@ QRLRVE: SINGLET SOLUTION FOR SYMMETRY    1  ( A  )    LABEL   YDIPLEN     FREQUENCY   0.000000D+00

@ QRLRVE:  << XDIPLEN  ; YDIPLEN  >> (   0.00000):     198.787519513    

@ QRLRVE:  << YDIPLEN  ; YDIPLEN  >> (   0.00000):     240.274381576    

@ QRLRVE:  << ZDIPLEN  ; YDIPLEN  >> (   0.00000):    2.566125580152E-14

@ QRLRVE: SINGLET SOLUTION FOR SYMMETRY    1  ( A  )    LABEL   YDIPLEN     FREQUENCY   0.215000D-01

@ QRLRVE:  << XDIPLEN  ; YDIPLEN  >> (   0.02150):     204.508586621    

@ QRLRVE:  << YDIPLEN  ; YDIPLEN  >> (   0.02150):     243.831025722    

@ QRLRVE:  << ZDIPLEN  ; YDIPLEN  >> (   0.02150):    2.583667091007E-14

@ QRLRVE: SINGLET SOLUTION FOR SYMMETRY    1  ( A  )    LABEL   YDIPLEN     FREQUENCY   0.430000D-01

@ QRLRVE:  << XDIPLEN  ; YDIPLEN  >> (   0.04300):     223.828410984    

@ QRLRVE:  << YDIPLEN  ; YDIPLEN  >> (   0.04300):     255.772929240    

@ QRLRVE:  << ZDIPLEN  ; YDIPLEN  >> (   0.04300):    2.637213229341E-14


 QRLRVE -- linear response calculation for symmetry  1  ( A  )
 QRLRVE -- operator label : ZDIPLEN 
 QRLRVE -- operator spin  :   0
 QRLRVE -- frequencies :  0.000000  0.021500  0.043000



 ---  SOLVING SETS OF LINEAR EQUATIONS FOR LINEAR RESPONSE PROPERTIES ---

 Operator symmetry = 1  ( A  ); triplet =   F


 ** RSPCTL MICROITERATION NUMBER    1

       No.  Residual tot.,    conf., and orb.    Bnorm      Frequency 
      ----------------------------------------------------------------
         1    3.07094D+00  0.00D+00  3.07D+00  7.48D+00    0.00000D+00
         2    3.07417D+00  0.00D+00  3.07D+00  7.51D+00    2.15000D-02
         3    3.08398D+00  0.00D+00  3.08D+00  7.60D+00    4.30000D-02

 ** RSPCTL MICROITERATION NUMBER    2

       No.  Residual tot.,    conf., and orb.    Bnorm      Frequency 
      ----------------------------------------------------------------
         1    7.54472D-01  0.00D+00  7.54D-01  7.85D+00    0.00000D+00
         2    7.56807D-01  0.00D+00  7.57D-01  7.88D+00    2.15000D-02
         3    7.63917D-01  0.00D+00  7.64D-01  7.98D+00    4.30000D-02

 ** RSPCTL MICROITERATION NUMBER    3

       No.  Residual tot.,    conf., and orb.    Bnorm      Frequency 
      ----------------------------------------------------------------
         1    1.57079D-01  0.00D+00  1.57D-01  7.88D+00    0.00000D+00
         2    1.58427D-01  0.00D+00  1.58D-01  7.91D+00    2.15000D-02
         3    1.62572D-01  0.00D+00  1.63D-01  8.01D+00    4.30000D-02

 ** RSPCTL MICROITERATION NUMBER    4

       No.  Residual tot.,    conf., and orb.    Bnorm      Frequency 
      ----------------------------------------------------------------
         1    4.37631D-02  0.00D+00  4.38D-02  7.89D+00    0.00000D+00
         2    4.46829D-02  0.00D+00  4.47D-02  7.92D+00    2.15000D-02
         3    4.76130D-02  0.00D+00  4.76D-02  8.01D+00    4.30000D-02

 ** RSPCTL MICROITERATION NUMBER    5

       No.  Residual tot.,    conf., and orb.    Bnorm      Frequency 
      ----------------------------------------------------------------
         1    1.68042D-02  0.00D+00  1.68D-02  7.89D+00    0.00000D+00
         2    1.74607D-02  0.00D+00  1.75D-02  7.92D+00    2.15000D-02
         3    1.95603D-02  0.00D+00  1.96D-02  8.01D+00    4.30000D-02

 ** RSPCTL MICROITERATION NUMBER    6

       No.  Residual tot.,    conf., and orb.    Bnorm      Frequency 
      ----------------------------------------------------------------
         1    6.26184D-03  0.00D+00  6.26D-03  7.89D+00    0.00000D+00
         2    6.59501D-03  0.00D+00  6.60D-03  7.92D+00    2.15000D-02
         3    7.68302D-03  0.00D+00  7.68D-03  8.02D+00    4.30000D-02

 *** THE REQUESTED    3 SOLUTION VECTORS CONVERGED

 Convergence of RSP solution vectors, threshold = 1.00D-03
 ---------------------------------------------------------------
 (dimension of paired reduced space:   36)
 RSP solution vector no.    1; norm of residual   7.94D-04
 RSP solution vector no.    2; norm of residual   8.33D-04
 RSP solution vector no.    3; norm of residual   9.59D-04

 *** RSPCTL MICROITERATIONS CONVERGED

@ QRLRVE: SINGLET SOLUTION FOR SYMMETRY    1  ( A  )    LABEL   ZDIPLEN     FREQUENCY   0.000000D+00

@ QRLRVE:  << XDIPLEN  ; ZDIPLEN  >> (   0.00000):    1.915530028515E-14

@ QRLRVE:  << YDIPLEN  ; ZDIPLEN  >> (   0.00000):    1.906210856337E-14

@ QRLRVE:  << ZDIPLEN  ; ZDIPLEN  >> (   0.00000):     89.8302292182    

@ QRLRVE: SINGLET SOLUTION FOR SYMMETRY    1  ( A  )    LABEL   ZDIPLEN     FREQUENCY   0.215000D-01

@ QRLRVE:  << XDIPLEN  ; ZDIPLEN  >> (   0.02150):    1.935109839311E-14

@ QRLRVE:  << YDIPLEN  ; ZDIPLEN  >> (   0.02150):    1.910878109263E-14

@ QRLRVE:  << ZDIPLEN  ; ZDIPLEN  >> (   0.02150):     89.9741904118    

@ QRLRVE: SINGLET SOLUTION FOR SYMMETRY    1  ( A  )    LABEL   ZDIPLEN     FREQUENCY   0.430000D-01

@ QRLRVE:  << XDIPLEN  ; ZDIPLEN  >> (   0.04300):    1.995589454544E-14

@ QRLRVE:  << YDIPLEN  ; ZDIPLEN  >> (   0.04300):    1.921315484425E-14

@ QRLRVE:  << ZDIPLEN  ; ZDIPLEN  >> (   0.04300):     90.4112988260    
 
 ======================================================================
 ---  L I N E A R   R E S P O N S E   F U N C T I O N S --- 
 ======================================================================

 The -<<A;B>>(omega_b) functions from vectors generated
 in a *QUADRA calculation of <<A;B,C>>(omega_b,omega_c)

 Note: the accuracy of off-diagonal elements will be linear
 in the convergence threshold THCLR =  1.00D-03


 Perturbation symmetry.     KSYMOP:           1
 Perturbation spin symmetry.TRPLET:           F
 Orbital variables.         KZWOPT:       44217
 Configuration variables.   KZCONF:           0
 Total number of variables. KZVAR :       44217

@ Singlet linear response function in a.u.

@ A operator, symmetry, frequency:   XDIPLEN    1 -0.000000
@ B operator, symmetry, frequency:   XDIPLEN    1  0.000000

@ Value of linear response -<<A;B>>(omega):     475.896414424557

@ Singlet linear response function in a.u.

@ A operator, symmetry, frequency:   YDIPLEN    1 -0.000000
@ B operator, symmetry, frequency:   XDIPLEN    1  0.000000

@ Value of linear response -<<A;B>>(omega):     198.776774785801

@ Singlet linear response function in a.u.

@ A operator, symmetry, frequency:   ZDIPLEN    1 -0.000000
@ B operator, symmetry, frequency:   XDIPLEN    1  0.000000

@ Value of linear response -<<A;B>>(omega):       0.000000000000

@ Singlet linear response function in a.u.

@ A operator, symmetry, frequency:   XDIPLEN    1 -0.021500
@ B operator, symmetry, frequency:   XDIPLEN    1  0.021500

@ Value of linear response -<<A;B>>(omega):     486.043333331180

@ Singlet linear response function in a.u.

@ A operator, symmetry, frequency:   YDIPLEN    1 -0.021500
@ B operator, symmetry, frequency:   XDIPLEN    1  0.021500

@ Value of linear response -<<A;B>>(omega):     204.497081238911

@ Singlet linear response function in a.u.

@ A operator, symmetry, frequency:   ZDIPLEN    1 -0.021500
@ B operator, symmetry, frequency:   XDIPLEN    1  0.021500

@ Value of linear response -<<A;B>>(omega):       0.000000000000

@ Singlet linear response function in a.u.

@ A operator, symmetry, frequency:   XDIPLEN    1 -0.000000
@ B operator, symmetry, frequency:   YDIPLEN    1  0.000000

@ Value of linear response -<<A;B>>(omega):     198.787519512769

@ Singlet linear response function in a.u.

@ A operator, symmetry, frequency:   YDIPLEN    1 -0.000000
@ B operator, symmetry, frequency:   YDIPLEN    1  0.000000

@ Value of linear response -<<A;B>>(omega):     240.274381575517

@ Singlet linear response function in a.u.

@ A operator, symmetry, frequency:   ZDIPLEN    1 -0.000000
@ B operator, symmetry, frequency:   YDIPLEN    1  0.000000

@ Value of linear response -<<A;B>>(omega):       0.000000000000

@ Singlet linear response function in a.u.

@ A operator, symmetry, frequency:   XDIPLEN    1 -0.021500
@ B operator, symmetry, frequency:   YDIPLEN    1  0.021500

@ Value of linear response -<<A;B>>(omega):     204.508586620932

@ Singlet linear response function in a.u.

@ A operator, symmetry, frequency:   YDIPLEN    1 -0.021500
@ B operator, symmetry, frequency:   YDIPLEN    1  0.021500

@ Value of linear response -<<A;B>>(omega):     243.831025721918

@ Singlet linear response function in a.u.

@ A operator, symmetry, frequency:   ZDIPLEN    1 -0.021500
@ B operator, symmetry, frequency:   YDIPLEN    1  0.021500

@ Value of linear response -<<A;B>>(omega):       0.000000000000

@ Singlet linear response function in a.u.

@ A operator, symmetry, frequency:   XDIPLEN    1 -0.000000
@ B operator, symmetry, frequency:   ZDIPLEN    1  0.000000

@ Value of linear response -<<A;B>>(omega):       0.000000000000

@ Singlet linear response function in a.u.

@ A operator, symmetry, frequency:   YDIPLEN    1 -0.000000
@ B operator, symmetry, frequency:   ZDIPLEN    1  0.000000

@ Value of linear response -<<A;B>>(omega):       0.000000000000

@ Singlet linear response function in a.u.

@ A operator, symmetry, frequency:   ZDIPLEN    1 -0.000000
@ B operator, symmetry, frequency:   ZDIPLEN    1  0.000000

@ Value of linear response -<<A;B>>(omega):      89.830229218215

@ Singlet linear response function in a.u.

@ A operator, symmetry, frequency:   XDIPLEN    1 -0.021500
@ B operator, symmetry, frequency:   ZDIPLEN    1  0.021500

@ Value of linear response -<<A;B>>(omega):       0.000000000000

@ Singlet linear response function in a.u.

@ A operator, symmetry, frequency:   YDIPLEN    1 -0.021500
@ B operator, symmetry, frequency:   ZDIPLEN    1  0.021500

@ Value of linear response -<<A;B>>(omega):       0.000000000000

@ Singlet linear response function in a.u.

@ A operator, symmetry, frequency:   ZDIPLEN    1 -0.021500
@ B operator, symmetry, frequency:   ZDIPLEN    1  0.021500

@ Value of linear response -<<A;B>>(omega):      89.974190411778


  Results from quadratic response calculation
 --------------------------------------------

@ B-freq = 0.000000  C-freq = 0.000000     beta(X;X,X) =   5306.66169853
@ B-freq = 0.000000  C-freq = 0.000000     beta(Y;X,X) =   5529.09145161
@ B-freq = 0.000000  C-freq = 0.000000     beta(Z;X,X) =     -0.00000000
@ B-freq = 0.021500  C-freq = 0.000000     beta(X;X,X) =   5697.38258850
@ B-freq = 0.021500  C-freq = 0.000000     beta(Y;X,X) =   5839.60604050
@ B-freq = 0.021500  C-freq = 0.000000     beta(Z;X,X) =     -0.00000000
@ B-freq = 0.000000  C-freq = 0.000000     beta(X;Y,X) = beta(Y,X,X)
@ B-freq = 0.000000  C-freq = 0.000000     beta(X;Y,X) =   5529.09022953
@ B-freq = 0.000000  C-freq = 0.000000     beta(Y;Y,X) =   4880.15159474
@ B-freq = 0.000000  C-freq = 0.000000     beta(Z;Y,X) =     -0.00000000
@ B-freq = 0.021500  C-freq = 0.000000     beta(X;Y,X) =   5839.60474961
@ B-freq = 0.021500  C-freq = 0.000000     beta(Y;Y,X) =   5113.02915542
@ B-freq = 0.021500  C-freq = 0.000000     beta(Z;Y,X) =     -0.00000000
@ B-freq = 0.000000  C-freq = 0.000000     beta(X;Z,X) = beta(Z,X,X)
@ B-freq = 0.000000  C-freq = 0.000000     beta(Y;Z,X) = beta(Z,Y,X)
@ B-freq = 0.000000  C-freq = 0.000000     beta(X;Z,X) =     -0.00000000
@ B-freq = 0.000000  C-freq = 0.000000     beta(Y;Z,X) =     -0.00000000
@ B-freq = 0.000000  C-freq = 0.000000     beta(Z;Z,X) =    -32.15763753
@ B-freq = 0.021500  C-freq = 0.000000     beta(X;Z,X) =     -0.00000000
@ B-freq = 0.021500  C-freq = 0.000000     beta(Y;Z,X) =     -0.00000000
@ B-freq = 0.021500  C-freq = 0.000000     beta(Z;Z,X) =    -32.76808827
@ B-freq = 0.000000  C-freq = 0.021500     beta(X;X,X) = beta(X,X,X)
@ B-freq = 0.000000  C-freq = 0.021500     beta(Y;X,X) = beta(Y,X,X)
@ B-freq = 0.000000  C-freq = 0.021500     beta(Z;X,X) = beta(Z,X,X)
@ B-freq = 0.021500  C-freq = 0.021500     beta(X;X,X) =   6599.82251212
@ B-freq = 0.021500  C-freq = 0.021500     beta(Y;X,X) =   6472.05127334
@ B-freq = 0.021500  C-freq = 0.021500     beta(Z;X,X) =     -0.00000000
@ B-freq = 0.000000  C-freq = 0.021500     beta(X;Y,X) =   5905.43750101
@ B-freq = 0.000000  C-freq = 0.021500     beta(Y;Y,X) =   5156.44278953
@ B-freq = 0.000000  C-freq = 0.021500     beta(Z;Y,X) =     -0.00000000
@ B-freq = 0.021500  C-freq = 0.021500     beta(X;Y,X) =   6697.40362772
@ B-freq = 0.021500  C-freq = 0.021500     beta(Y;Y,X) =   5687.91434173
@ B-freq = 0.021500  C-freq = 0.021500     beta(Z;Y,X) =     -0.00000000
@ B-freq = 0.000000  C-freq = 0.021500     beta(X;Z,X) =     -0.00000000
@ B-freq = 0.000000  C-freq = 0.021500     beta(Y;Z,X) =     -0.00000000
@ B-freq = 0.000000  C-freq = 0.021500     beta(Z;Z,X) =    -32.99761917
@ B-freq = 0.021500  C-freq = 0.021500     beta(X;Z,X) =     -0.00000000
@ B-freq = 0.021500  C-freq = 0.021500     beta(Y;Z,X) =     -0.00000000
@ B-freq = 0.021500  C-freq = 0.021500     beta(Z;Z,X) =    -34.28974466
@ B-freq = 0.000000  C-freq = 0.000000     beta(X;X,Y) = beta(Y,X,X)
@ B-freq = 0.000000  C-freq = 0.000000     beta(Y;X,Y) = beta(Y,Y,X)
@ B-freq = 0.000000  C-freq = 0.000000     beta(Z;X,Y) = beta(Z,Y,X)
@ B-freq = 0.021500  C-freq = 0.000000     beta(X;X,Y) = beta(X,Y,X)
@ B-freq = 0.021500  C-freq = 0.000000     beta(Y;X,Y) = beta(Y,Y,X)
@ B-freq = 0.021500  C-freq = 0.000000     beta(Z;X,Y) = beta(Z,Y,X)
@ B-freq = 0.000000  C-freq = 0.000000     beta(X;Y,Y) = beta(Y,Y,X)
@ B-freq = 0.000000  C-freq = 0.000000     beta(X;Y,Y) =   4880.15088027
@ B-freq = 0.000000  C-freq = 0.000000     beta(Y;Y,Y) =   3892.99476831
@ B-freq = 0.000000  C-freq = 0.000000     beta(Z;Y,Y) =     -0.00000000
@ B-freq = 0.021500  C-freq = 0.000000     beta(X;Y,Y) =   5156.44203545
@ B-freq = 0.021500  C-freq = 0.000000     beta(Y;Y,Y) =   4089.33875331
@ B-freq = 0.021500  C-freq = 0.000000     beta(Z;Y,Y) =     -0.00000000
@ B-freq = 0.000000  C-freq = 0.000000     beta(X;Z,Y) = beta(Z,Y,X)
@ B-freq = 0.000000  C-freq = 0.000000     beta(Y;Z,Y) = beta(Z,Y,Y)
@ B-freq = 0.000000  C-freq = 0.000000     beta(X;Z,Y) =     -0.00000000
@ B-freq = 0.000000  C-freq = 0.000000     beta(Y;Z,Y) =     -0.00000000
@ B-freq = 0.000000  C-freq = 0.000000     beta(Z;Z,Y) =    -28.37864684
@ B-freq = 0.021500  C-freq = 0.000000     beta(X;Z,Y) =     -0.00000000
@ B-freq = 0.021500  C-freq = 0.000000     beta(Y;Z,Y) =     -0.00000000
@ B-freq = 0.021500  C-freq = 0.000000     beta(Z;Z,Y) =    -28.79371523
@ B-freq = 0.000000  C-freq = 0.021500     beta(X;X,Y) = beta(X,Y,X)
@ B-freq = 0.000000  C-freq = 0.021500     beta(Y;X,Y) = beta(Y,Y,X)
@ B-freq = 0.000000  C-freq = 0.021500     beta(Z;X,Y) = beta(Z,Y,X)
@ B-freq = 0.021500  C-freq = 0.021500     beta(X;X,Y) = beta(X,Y,X)
@ B-freq = 0.021500  C-freq = 0.021500     beta(Y;X,Y) = beta(Y,Y,X)
@ B-freq = 0.021500  C-freq = 0.021500     beta(Z;X,Y) = beta(Z,Y,X)
@ B-freq = 0.000000  C-freq = 0.021500     beta(X;Y,Y) = beta(X,Y,Y)
@ B-freq = 0.000000  C-freq = 0.021500     beta(Y;Y,Y) = beta(Y,Y,Y)
@ B-freq = 0.000000  C-freq = 0.021500     beta(Z;Y,Y) = beta(Z,Y,Y)
@ B-freq = 0.021500  C-freq = 0.021500     beta(X;Y,Y) =   5836.73644726
@ B-freq = 0.021500  C-freq = 0.021500     beta(Y;Y,Y) =   4534.10521933
@ B-freq = 0.021500  C-freq = 0.021500     beta(Z;Y,Y) =     -0.00000000
@ B-freq = 0.000000  C-freq = 0.021500     beta(X;Z,Y) =     -0.00000000
@ B-freq = 0.000000  C-freq = 0.021500     beta(Y;Z,Y) =     -0.00000000
@ B-freq = 0.000000  C-freq = 0.021500     beta(Z;Z,Y) =    -28.92870856
@ B-freq = 0.021500  C-freq = 0.021500     beta(X;Z,Y) =     -0.00000000
@ B-freq = 0.021500  C-freq = 0.021500     beta(Y;Z,Y) =     -0.00000000
@ B-freq = 0.021500  C-freq = 0.021500     beta(Z;Z,Y) =    -29.80172693
@ B-freq = 0.000000  C-freq = 0.000000     beta(X;X,Z) = beta(Z,X,X)
@ B-freq = 0.000000  C-freq = 0.000000     beta(Y;X,Z) = beta(Z,Y,X)
@ B-freq = 0.000000  C-freq = 0.000000     beta(Z;X,Z) = beta(Z,Z,X)
@ B-freq = 0.021500  C-freq = 0.000000     beta(X;X,Z) = beta(X,Z,X)
@ B-freq = 0.021500  C-freq = 0.000000     beta(Y;X,Z) = beta(Y,Z,X)
@ B-freq = 0.021500  C-freq = 0.000000     beta(Z;X,Z) = beta(Z,Z,X)
@ B-freq = 0.000000  C-freq = 0.000000     beta(X;Y,Z) = beta(Z,Y,X)
@ B-freq = 0.000000  C-freq = 0.000000     beta(Y;Y,Z) = beta(Z,Y,Y)
@ B-freq = 0.000000  C-freq = 0.000000     beta(Z;Y,Z) = beta(Z,Z,Y)
@ B-freq = 0.021500  C-freq = 0.000000     beta(X;Y,Z) = beta(X,Z,Y)
@ B-freq = 0.021500  C-freq = 0.000000     beta(Y;Y,Z) = beta(Y,Z,Y)
@ B-freq = 0.021500  C-freq = 0.000000     beta(Z;Y,Z) = beta(Z,Z,Y)
@ B-freq = 0.000000  C-freq = 0.000000     beta(X;Z,Z) = beta(Z,Z,X)
@ B-freq = 0.000000  C-freq = 0.000000     beta(Y;Z,Z) = beta(Z,Z,Y)
@ B-freq = 0.000000  C-freq = 0.000000     beta(X;Z,Z) =    -32.15763143
@ B-freq = 0.000000  C-freq = 0.000000     beta(Y;Z,Z) =    -28.37863627
@ B-freq = 0.000000  C-freq = 0.000000     beta(Z;Z,Z) =     -0.00000000
@ B-freq = 0.021500  C-freq = 0.000000     beta(X;Z,Z) =    -32.99761242
@ B-freq = 0.021500  C-freq = 0.000000     beta(Y;Z,Z) =    -28.92869750
@ B-freq = 0.021500  C-freq = 0.000000     beta(Z;Z,Z) =     -0.00000000
@ B-freq = 0.000000  C-freq = 0.021500     beta(X;X,Z) = beta(X,Z,X)
@ B-freq = 0.000000  C-freq = 0.021500     beta(Y;X,Z) = beta(Y,Z,X)
@ B-freq = 0.000000  C-freq = 0.021500     beta(Z;X,Z) = beta(Z,Z,X)
@ B-freq = 0.021500  C-freq = 0.021500     beta(X;X,Z) = beta(X,Z,X)
@ B-freq = 0.021500  C-freq = 0.021500     beta(Y;X,Z) = beta(Y,Z,X)
@ B-freq = 0.021500  C-freq = 0.021500     beta(Z;X,Z) = beta(Z,Z,X)
@ B-freq = 0.000000  C-freq = 0.021500     beta(X;Y,Z) = beta(X,Z,Y)
@ B-freq = 0.000000  C-freq = 0.021500     beta(Y;Y,Z) = beta(Y,Z,Y)
@ B-freq = 0.000000  C-freq = 0.021500     beta(Z;Y,Z) = beta(Z,Z,Y)
@ B-freq = 0.021500  C-freq = 0.021500     beta(X;Y,Z) = beta(X,Z,Y)
@ B-freq = 0.021500  C-freq = 0.021500     beta(Y;Y,Z) = beta(Y,Z,Y)
@ B-freq = 0.021500  C-freq = 0.021500     beta(Z;Y,Z) = beta(Z,Z,Y)
@ B-freq = 0.000000  C-freq = 0.021500     beta(X;Z,Z) = beta(X,Z,Z)
@ B-freq = 0.000000  C-freq = 0.021500     beta(Y;Z,Z) = beta(Y,Z,Z)
@ B-freq = 0.000000  C-freq = 0.021500     beta(Z;Z,Z) = beta(Z,Z,Z)
@ B-freq = 0.021500  C-freq = 0.021500     beta(X;Z,Z) =    -35.11765127
@ B-freq = 0.021500  C-freq = 0.021500     beta(Y;Z,Z) =    -30.28742986
@ B-freq = 0.021500  C-freq = 0.021500     beta(Z;Z,Z) =     -0.00000000

  Total CPU  time used in RESPONSE: 37 minutes 48 seconds
  Total wall time used in RESPONSE: 38 minutes  3 seconds


                   .-------------------------------------------.
                   | End of Dynamic Property Section (RESPONS) |
                   `-------------------------------------------'

  Total CPU  time used in DALTON: 47 minutes 26 seconds
  Total wall time used in DALTON: 47 minutes 45 seconds

 
     Date and time (Linux)  : Fri May  9 17:59:24 2025
     Host name              : xm046                                   
