

     ************************************************************************
     *************** Dalton - An Electronic Structure Program ***************
     ************************************************************************

    This is output from DALTON release Dalton2020.0 (2020)
         ( Web site: http://daltonprogram.org )

   ----------------------------------------------------------------------------

    NOTE:
     
    Dalton is an experimental code for the evaluation of molecular
    properties using (MC)SCF, DFT, CI, and CC wave functions.
    The authors accept no responsibility for the performance of
    the code or for the correctness of the results.
     
    The code (in whole or part) is provided under a licence and
    is not to be reproduced for further distribution without
    the written permission of the authors or their representatives.
     
    See the home page "http://daltonprogram.org" for further information.
     
    If results obtained with this code are published,
    the appropriate citations would be both of:
     
       K. Aidas, C. Angeli, K. L. Bak, V. Bakken, R. Bast,
       L. Boman, O. Christiansen, R. Cimiraglia, S. Coriani,
       P. Dahle, E. K. Dalskov, U. Ekstroem,
       T. Enevoldsen, J. J. Eriksen, P. Ettenhuber, B. Fernandez,
       L. Ferrighi, H. Fliegl, L. Frediani, K. Hald, A. Halkier,
       C. Haettig, H. Heiberg, T. Helgaker, A. C. Hennum,
       H. Hettema, E. Hjertenaes, S. Hoest, I.-M. Hoeyvik,
       M. F. Iozzi, B. Jansik, H. J. Aa. Jensen, D. Jonsson,
       P. Joergensen, J. Kauczor, S. Kirpekar,
       T. Kjaergaard, W. Klopper, S. Knecht, R. Kobayashi, H. Koch,
       J. Kongsted, A. Krapp, K. Kristensen, A. Ligabue,
       O. B. Lutnaes, J. I. Melo, K. V. Mikkelsen, R. H. Myhre,
       C. Neiss, C. B. Nielsen, P. Norman, J. Olsen,
       J. M. H. Olsen, A. Osted, M. J. Packer, F. Pawlowski,
       T. B. Pedersen, P. F. Provasi, S. Reine, Z. Rinkevicius,
       T. A. Ruden, K. Ruud, V. Rybkin, P. Salek, C. C. M. Samson,
       A. Sanchez de Meras, T. Saue, S. P. A. Sauer,
       B. Schimmelpfennig, K. Sneskov, A. H. Steindal,
       K. O. Sylvester-Hvid, P. R. Taylor, A. M. Teale,
       E. I. Tellgren, D. P. Tew, A. J. Thorvaldsen, L. Thoegersen,
       O. Vahtras, M. A. Watson, D. J. D. Wilson, M. Ziolkowski
       and H. Agren,
       "The Dalton quantum chemistry program system",
       WIREs Comput. Mol. Sci. 2014, 4:269–284 (doi: 10.1002/wcms.1172)
     
    and
     
       Dalton, a molecular electronic structure program,
       Release Dalton2020.0 (2020), see http://daltonprogram.org
   ----------------------------------------------------------------------------

    Authors in alphabetical order (Major contribution(s) in parenthesis):

  Kestutis Aidas,           Vilnius University,           Lithuania   (QM/MM)
  Celestino Angeli,         University of Ferrara,        Italy       (NEVPT2)
  Keld L. Bak,              UNI-C,                        Denmark     (AOSOPPA, non-adiabatic coupling, magnetic properties)
  Vebjoern Bakken,          University of Oslo,           Norway      (DALTON; geometry optimizer, symmetry detection)
  Radovan Bast,             UiT The Arctic U. of Norway,  Norway      (DALTON installation and execution frameworks)
  Pablo Baudin,             University of Valencia,       Spain       (Cholesky excitation energies)
  Linus Boman,              NTNU,                         Norway      (Cholesky decomposition and subsystems)
  Bruno N. Cabral Tenorio,  Technical Univ. of Denmark,   Denmark     (Lanczos-based CC methods)
  Ove Christiansen,         Aarhus University,            Denmark     (CC module)
  Renzo Cimiraglia,         University of Ferrara,        Italy       (NEVPT2)
  Sonia Coriani,            Technical Univ. of Denmark,   Denmark     (CC and RESPONS modules)
  Janusz Cukras,            University of Warsaw,         Poland      (MChD in RESPONS)
  Paal Dahle,               University of Oslo,           Norway      (Parallelization)
  Erik K. Dalskov,          UNI-C,                        Denmark     (SOPPA)
  Thomas Enevoldsen,        Univ. of Southern Denmark,    Denmark     (SOPPA)
  Janus J. Eriksen,         Aarhus University,            Denmark     (Polarizable embedding, TDA)
  Rasmus Faber,             Technical Univ. of Denmark,   Denmark     (Vib.avg. NMR w. SOPPA, parallel AO-SOPPA, CVS-CC and EOMCC)
  Tobias Fahleson,          KTH Stockholm,                Sweden      (Damped cubic response)
  Berta Fernandez,          U. of Santiago de Compostela, Spain       (Doublet spin, ESR in RESPONS)
  Lara Ferrighi,            Aarhus University,            Denmark     (PCM Cubic response)
  Heike Fliegl,             University of Oslo,           Norway      (CCSD(R12))
  Luca Frediani,            UiT The Arctic U. of Norway,  Norway      (PCM)
  Emmanuel Fromager,        Univ. Strasbourg,             France      (MC-srDFT)
  Bin Gao,                  UiT The Arctic U. of Norway,  Norway      (Gen1Int library)
  Andre S. P. Gomes,        CNRS/Universite de Lille,     France      (Frozen density embedding)
  Christof Haettig,         Ruhr-University Bochum,       Germany     (CC module)
  Kasper Hald,              Aarhus University,            Denmark     (CC module)
  Asger Halkier,            Aarhus University,            Denmark     (CC module)
  Frederik Beyer Hansen,    University of Copenhagen,     Denmark     (Parallel AO-SOPPA)
  Erik D. Hedegaard,        Univ. of Southern Denmark,    Denmark     (Polarizable embedding, QM/MM, and MC-srDFT)
  Hanne Heiberg,            University of Oslo,           Norway      (Geometry analysis, selected one-electron integrals)
  Trygve Helgaker,          University of Oslo,           Norway      (DALTON; ABACUS, ERI, DFT modules, London, and much more)
  Alf Christian Hennum,     University of Oslo,           Norway      (Parity violation)
  Hinne Hettema,            University of Auckland,       New Zealand (Quadratic response in RESPONS; SIRIUS supersymmetry)
  Eirik Hjertenaes,         NTNU,                         Norway      (Cholesky decomposition)
  Pi A. B. Haase,           University of Copenhagen,     Denmark     (Triplet AO-SOPPA)
  Maria Francesca Iozzi,    University of Oslo,           Norway      (RPA)
  Christoph Jacob           TU Braunschweig               Germany     (Frozen density embedding)
  Brano Jansik              Technical Univ. of Ostrava    Czech Rep.  (DFT cubic response)
  Hans Joergen Aa. Jensen,  Univ. of Southern Denmark,    Denmark     (DALTON; SIRIUS, RESPONS, ABACUS, MC-srDFT, and much more)
  Dan Jonsson,              UiT The Arctic U. of Norway,  Norway      (Cubic response in RESPONS module)
  Poul Joergensen,          Aarhus University,            Denmark     (RESPONS, ABACUS, and CC modules)
  Maciej Kaminski,          University of Warsaw,         Poland      (CPPh in RESPONS)
  Joanna Kauczor,           Linkoeping University,        Sweden      (Complex polarization propagator (CPP) module)
  Sheela Kirpekar,          Univ. of Southern Denmark,    Denmark     (Mass-velocity & Darwin integrals)
  Erik Kjellgren,           Univ. of Southern Denmark,    Denmark     (MC-srDFT)
  Wim Klopper,              KIT Karlsruhe,                Germany     (R12 code in CC, SIRIUS, and ABACUS modules)
  Stefan Knecht,            ETH Zurich,                   Switzerland (Parallel CI and MCSCF, MC-srDFT)
  Rika Kobayashi,           Australian National Univ.,    Australia   (DIIS in CC, London in MCSCF)
  Henrik Koch,              NTNU,                         Norway      (CC module, Cholesky decomposition)
  Jacob Kongsted,           Univ. of Southern Denmark,    Denmark     (Polarizable embedding, polarizable density embedding, QM/MM)
  Andrea Ligabue,           University of Modena,         Italy       (CTOCD, AOSOPPA)
  Nanna H. List             Univ. of Southern Denmark,    Denmark     (Polarizable embedding)
  Ola B. Lutnaes,           University of Oslo,           Norway      (DFT Hessian)
  Juan I. Melo,             University of Buenos Aires,   Argentina   (LRESC, Relativistic Effects on NMR Shieldings)
  Kurt V. Mikkelsen,        University of Copenhagen,     Denmark     (MC-SCRF and QM/MM)
  Rolf H. Myhre,            NTNU,                         Norway      (Subsystems and CC3)
  Christian Neiss,          Univ. Erlangen-Nuernberg,     Germany     (CCSD(R12))
  Christian B. Nielsen,     University of Copenhagen,     Denmark     (QM/MM)
  Patrick Norman,           KTH Stockholm,                Sweden      (Cubic response and complex frequency response in RESPONS)
  Jeppe Olsen,              Aarhus University,            Denmark     (SIRIUS CI/density modules)
  Jogvan Magnus H. Olsen,   Aarhus University,            Denmark     (Polarizable embedding and polarizable density embedding)
  Anders Osted,             Copenhagen University,        Denmark     (QM/MM)
  Martin J. Packer,         University of Sheffield,      UK          (SOPPA)
  Filip Pawlowski,          Kazimierz Wielki University,  Poland      (CC3)
  Morten N. Pedersen,       Univ. of Southern Denmark,    Denmark     (Polarizable embedding)
  Thomas B. Pedersen,       University of Oslo,           Norway      (Cholesky decomposition)
  Patricio F. Provasi,      University of Northeastern,   Argentina   (Analysis of coupling constants in localized orbitals)
  Peter Reinholdt,          Univ. of Southern Denmark,    Denmark     (Polarizable embedding and polarizable density embedding)
  Zilvinas Rinkevicius,     KTH Stockholm,                Sweden      (open-shell DFT, ESR)
  Elias Rudberg,            KTH Stockholm,                Sweden      (DFT grid and basis info)
  Torgeir A. Ruden,         University of Oslo,           Norway      (Numerical derivatives in ABACUS)
  Kenneth Ruud,             UiT The Arctic U. of Norway,  Norway      (DALTON; ABACUS magnetic properties and much more)
  Pawel Salek,              KTH Stockholm,                Sweden      (DALTON; DFT code)
  Claire C. M. Samson       University of Karlsruhe       Germany     (Boys localization, r12 integrals in ERI)
  Alfredo Sanchez de Meras, University of Valencia,       Spain       (CC module, Cholesky decomposition)
  Trond Saue,               Paul Sabatier University,     France      (direct Fock matrix construction)
  Stephan P. A. Sauer,      University of Copenhagen,     Denmark     (SOPPA(CCSD), SOPPA prop., AOSOPPA, vibrational g-factors)
  Bernd Schimmelpfennig,    Forschungszentrum Karlsruhe,  Germany     (AMFI module)
  Anna K. Schnack-Petersen, University of Copenhagen,     Denmark     (RPA(D) and HRPA(D) properties in AOSOPPA)
  Kristian Sneskov,         Aarhus University,            Denmark     (Polarizable embedding, QM/MM)
  Arnfinn H. Steindal,      UiT The Arctic U. of Norway,  Norway      (parallel QM/MM, polarizable embedding)
  Casper Steinmann,         Aalborg University,           Denmark     (QFIT, polarizable embedding)
  K. O. Sylvester-Hvid,     University of Copenhagen,     Denmark     (MC-SCRF)
  Peter R. Taylor,          VLSCI/Univ. of Melbourne,     Australia   (Symmetry handling ABACUS, integral transformation)
  Andrew M. Teale,          University of Nottingham,     England     (DFT-AC, DFT-D)
  David P. Tew,             University of Bristol,        England     (CCSD(R12))
  Julien Toulouse,          Sorbonne Univ.,               France      (MC-srDFT)
  Olav Vahtras,             KTH Stockholm,                Sweden      (Triplet response, spin-orbit, ESR, TDDFT, open-shell DFT)
  Lucas Visscher,           Vrije Universiteit Amsterdam, Netherlands (Frozen density embedding)
  David J. Wilson,          La Trobe University,          Australia   (DFT Hessian and DFT magnetizabilities)
  Hans Agren,               KTH Stockholm,                Sweden      (SIRIUS module, RESPONS, MC-SCRF solvation)
 --------------------------------------------------------------------------------

     Date and time (Linux)  : Mon May 12 19:12:00 2025
     Host name              : xm047                                   

 * Work memory size             :  1310720000 =  9.766 gigabytes.

 * Directories for basis set searches:
   1) /gpfs/projects/rjh/adrian/summer2025/beta_projects/raw_data/NLO/dalton/hf/n5/dipole
   2) /gpfs/projects/rjh/adrian/dalton/build/basis


Compilation information
-----------------------

 Who compiled             | ahurtado
 Host                     | milan2
 System                   | Linux-5.14.0-427.42.1.el9_4.x86_64
 CMake generator          | Unix Makefiles
 Processor                | x86_64
 64-bit integers          | OFF
 MPI                      | ON
 Fortran compiler         | /gpfs/software/openmpi/milan/gcc13.2/4.1.6/bin/mpi
                          | f90
 Fortran compiler version | GNU Fortran (GCC) 13.2.0
 C compiler               | /gpfs/software/openmpi/milan/gcc13.2/4.1.6/bin/mpi
                          | cc
 C compiler version       | gcc (GCC) 13.2.0
 C++ compiler             | /gpfs/software/openmpi/milan/gcc13.2/4.1.6/bin/mpi
                          | cxx
 C++ compiler version     | unknown
 BLAS                     | /gpfs/software/intel/oneAPI/2024_2/mkl/2024.2/lib/
                          | intel64/libmkl_gf_lp64.so;/gpfs/software/intel/one
                          | API/2024_2/mkl/2024.2/lib/intel64/libmkl_sequentia
                          | l.so;/gpfs/software/intel/oneAPI/2024_2/mkl/2024.2
                          | /lib/intel64/libmkl_core.so;/usr/lib64/libpthread.
                          | a;/usr/lib64/libm.so
 LAPACK                   | /gpfs/software/intel/oneAPI/2024_2/mkl/2024.2/lib/
                          | intel64/libmkl_lapack95_lp64.a;/gpfs/software/inte
                          | l/oneAPI/2024_2/mkl/2024.2/lib/intel64/libmkl_gf_l
                          | p64.so
 Static linking           | OFF
 Last Git revision        | 66052b3af5ea7225e31178bf9a8b031913c72190
 Git branch               | (HEAD detached at Dalton2020.0)
 Configuration time       | 2025-04-10 16:02:31.569498

 * MPI parallel run using 96 processes.


   Content of the .dal input file
 ----------------------------------

**DALTON INPUT
.RUN RESPONSE
.DIRECT
**WAVE FUNCTIONS
.HF
**PROPERTIES
**RESPONSE
*QUADRA
.DIPLEN
.FREQUENCIES
2
0.0 0.0215
**END OF DALTON INPUT


   Content of the .mol file
 ----------------------------

BASIS
d-aug-cc-pVTZ
blah
blah
Atomtype=4 Angstrom Charge=0 Nosymmetry
Charge=6 Atoms=10
C_a 5.536066998843778 3.466402999753725 0.0
C_b 4.166369001271292 3.4392500015976735 0.0
C_c 3.4276169984318443 2.20278399812645 0.0
C_d 2.058811997985908 2.096950000646235 0.0
C_e 1.365670001188536 0.8343780025891309 0.0
C_f 0.0 0.6914970018120553 0.0
C_g -0.6598629998290869 -0.5899810004107818 0.0
C_h -2.019472001042177 -0.7625100010991812 0.0
C_i -2.635186000190127 -2.070242998335108 0.0
C_j -3.974355002463877 -2.2666549995239453 0.0
Charge=7 Atoms=2
N_a 6.321381997672225 4.585279000628057 0.0
N_b -4.538794000068139 -3.610130001429271 0.0
Charge=8 Atoms=2
O_a -3.7757759994302575 -4.579172999422615 0.0
O_b -5.7747340013919555 -3.670131997735762 0.0
Charge=1 Atoms=12
H_a 6.093148999149485 2.5210970022683954 0.0
H_b 3.6069480006520194 4.384473997782438 0.0
H_c 5.909042998119462 5.508340002167312 0.0
H_d 7.3272380020916446 4.514706001608058 0.0
H_e 4.014154002428372 1.2707440023448995 0.0
H_f 1.453018002455127 3.0142559989321143 0.0
H_g 1.9828259976520177 -0.07723600157384668 0.0
H_h -0.6296780014679194 1.592591000069318 0.0
H_i -0.02111300122409742 -1.4859380003119211 0.0
H_j -2.6721639987787165 0.12098999792607903 0.0
H_k -1.992137997821215 -2.958866999124197 0.0
H_l -4.7392729980013515 -1.4879950020899213 0.0


       *******************************************************************
       *********** Output from DALTON general input processing ***********
       *******************************************************************

 --------------------------------------------------------------------------------
   Overall default print level:    0
   Print level for DALTON.STAT:    1

    Parallel calculation using MPI
    AO-direct calculation (in sections where implemented)
    HERMIT 1- and 2-electron integral sections will be executed
    "Old" integral transformation used (limited to max 255 basis functions)
    Wave function sections will be executed (SIRIUS module)
    Dynamic molecular response properties section will be executed (RESPONSE module)
 --------------------------------------------------------------------------------


   ****************************************************************************
   *************** Output of molecule and basis set information ***************
   ****************************************************************************


    The two title cards from your ".mol" input:
    ------------------------------------------------------------------------
 1: blah                                                                    
 2: blah                                                                    
    ------------------------------------------------------------------------

  Coordinates are entered in Angstrom and converted to atomic units.
          - Conversion factor : 1 bohr = 0.52917721 A

  Atomic type no.    1
  --------------------
  Nuclear charge:   6.00000
  Number of symmetry independent centers:   10
  Number of basis sets to read;    2
  Basis set file used for this atomic type with Z =   6 :
     "/gpfs/projects/rjh/adrian/dalton/build/basis/aug-cc-pVTZ"

  Atomic type no.    2
  --------------------
  Nuclear charge:   7.00000
  Number of symmetry independent centers:    2
  Number of basis sets to read;    2
  Basis set file used for this atomic type with Z =   7 :
     "/gpfs/projects/rjh/adrian/dalton/build/basis/aug-cc-pVTZ"

  Atomic type no.    3
  --------------------
  Nuclear charge:   8.00000
  Number of symmetry independent centers:    2
  Number of basis sets to read;    2
  Basis set file used for this atomic type with Z =   8 :
     "/gpfs/projects/rjh/adrian/dalton/build/basis/aug-cc-pVTZ"

  Atomic type no.    4
  --------------------
  Nuclear charge:   1.00000
  Number of symmetry independent centers:   12
  Number of basis sets to read;    2
  Basis set file used for this atomic type with Z =   1 :
     "/gpfs/projects/rjh/adrian/dalton/build/basis/aug-cc-pVTZ"


                         SYMGRP: Point group information
                         -------------------------------

@    Point group: C1 


                                 Isotopic Masses
                                 ---------------

                           C_a        12.000000
                           C_b        12.000000
                           C_c        12.000000
                           C_d        12.000000
                           C_e        12.000000
                           C_f        12.000000
                           C_g        12.000000
                           C_h        12.000000
                           C_i        12.000000
                           C_j        12.000000
                           N_a        14.003074
                           N_b        14.003074
                           O_a        15.994915
                           O_b        15.994915
                           H_a         1.007825
                           H_b         1.007825
                           H_c         1.007825
                           H_d         1.007825
                           H_e         1.007825
                           H_f         1.007825
                           H_g         1.007825
                           H_h         1.007825
                           H_i         1.007825
                           H_j         1.007825
                           H_k         1.007825
                           H_l         1.007825

                       Total mass:   192.089878 amu
                       Natural abundance:  88.282 %

 Center-of-mass coordinates (a.u.):   -0.197924   -0.164682    0.000000
 Center-of-mass coordinates (Angs):   -0.104737   -0.087146    0.000000


  Atoms and basis sets
  --------------------

  Number of atom types :    4
  Total number of atoms:   26

  Basis set used is "d-aug-cc-pVTZ" from the basis set library.

  label    atoms   charge   prim   cont     basis
  ----------------------------------------------------------------------
  C_         10    6.0000    74    62      [12s7p4d3f|6s5p4d3f]                               
  N_          2    7.0000    74    62      [12s7p4d3f|6s5p4d3f]                               
  O_          2    8.0000    74    62      [12s7p4d3f|6s5p4d3f]                               
  H_         12    1.0000    34    32      [7s4p3d|5s4p3d]                                    
  ----------------------------------------------------------------------
  total:     26  102.0000  1444  1252
  ----------------------------------------------------------------------
  Spherical harmonic basis used.

  Threshold for neglecting AO integrals:  1.00D-12

  Max    interatomic separation is   15.4484 Angstrom (   29.1933 Bohr)
  between atoms   18 and   14, "H_d   " and "O_b   ".

  Min HX interatomic separation is    1.0083 Angstrom (    1.9055 Bohr)

  Min YX interatomic separation is    1.2334 Angstrom (    2.3308 Bohr)


  Bond distances (Angstrom):
  --------------------------

                  atom 1     atom 2       distance
                  ------     ------       --------
  bond distance:  C_b        C_a          1.369967
  bond distance:  C_c        C_b          1.440348
  bond distance:  C_d        C_c          1.372890
  bond distance:  C_e        C_d          1.440324
  bond distance:  C_f        C_e          1.373124
  bond distance:  C_g        C_f          1.441390
  bond distance:  C_h        C_g          1.370512
  bond distance:  C_i        C_h          1.445430
  bond distance:  C_j        C_i          1.353496
  bond distance:  N_a        C_a          1.366969
  bond distance:  N_b        C_j          1.457229
  bond distance:  O_a        N_b          1.233386
  bond distance:  O_b        N_b          1.237396
  bond distance:  H_a        C_a          1.097244
  bond distance:  H_b        C_b          1.098363
  bond distance:  H_c        N_a          1.010972
  bond distance:  H_d        N_a          1.008329
  bond distance:  H_e        C_c          1.101238
  bond distance:  H_f        C_d          1.099289
  bond distance:  H_g        C_e          1.100873
  bond distance:  H_h        C_f          1.099302
  bond distance:  H_i        C_g          1.100337
  bond distance:  H_j        C_h          1.098444
  bond distance:  H_k        C_i          1.096888
  bond distance:  H_l        C_j          1.091518


  Bond angles (degrees):
  ----------------------

                  atom 1     atom 2     atom 3         angle
                  ------     ------     ------         -----
  bond angle:     C_b        C_a        N_a          126.200
  bond angle:     C_b        C_a        H_a          119.376
  bond angle:     N_a        C_a        H_a          114.424
  bond angle:     C_a        C_b        C_c          121.993
  bond angle:     C_a        C_b        H_b          119.483
  bond angle:     C_c        C_b        H_b          118.524
  bond angle:     C_b        C_c        C_d          125.278
  bond angle:     C_b        C_c        H_e          116.961
  bond angle:     C_d        C_c        H_e          117.761
  bond angle:     C_c        C_d        C_e          123.188
  bond angle:     C_c        C_d        H_f          119.020
  bond angle:     C_e        C_d        H_f          117.793
  bond angle:     C_d        C_e        C_f          124.739
  bond angle:     C_d        C_e        H_g          117.136
  bond angle:     C_f        C_e        H_g          118.125
  bond angle:     C_e        C_f        C_g          123.218
  bond angle:     C_e        C_f        H_h          118.973
  bond angle:     C_g        C_f        H_h          117.809
  bond angle:     C_f        C_g        C_h          124.477
  bond angle:     C_f        C_g        H_i          117.269
  bond angle:     C_h        C_g        H_i          118.254
  bond angle:     C_g        C_h        C_i          122.444
  bond angle:     C_g        C_h        H_j          119.223
  bond angle:     C_i        C_h        H_j          118.332
  bond angle:     C_h        C_i        C_j          123.556
  bond angle:     C_h        C_i        H_k          118.897
  bond angle:     C_j        C_i        H_k          117.547
  bond angle:     C_i        C_j        N_b          121.133
  bond angle:     C_i        C_j        H_l          126.146
  bond angle:     N_b        C_j        H_l          112.721
  bond angle:     C_a        N_a        H_c          120.865
  bond angle:     C_a        N_a        H_d          121.051
  bond angle:     H_c        N_a        H_d          118.084
  bond angle:     C_j        N_b        O_a          118.994
  bond angle:     C_j        N_b        O_b          115.568
  bond angle:     O_a        N_b        O_b          125.437




 Principal moments of inertia (u*A**2) and principal axes
 --------------------------------------------------------

   IA      79.412402          0.801134    0.598486    0.000000
   IB    4506.972239         -0.598486    0.801134    0.000000
   IC    4586.384642          0.000000    0.000000    1.000000


 Rotational constants
 --------------------

@    The molecule is planar.

               A                   B                   C

           6363.9808            112.1327            110.1912 MHz
            0.212280            0.003740            0.003676 cm-1


@  Nuclear repulsion energy :  704.495638200713 Hartree


                     .---------------------------------------.
                     | Starting in Integral Section (HERMIT) |
                     `---------------------------------------'



 ***************************************************************************************
 ****************** Output from **INTEGRALS input processing (HERMIT) ******************
 ***************************************************************************************


 - Using defaults, no **INTEGRALS input found

 Default print level:        1

 Calculation of one-electron Hamiltonian integrals.

 Center of mass  (bohr):     -0.197923758795     -0.164681770665      0.000000000000
 Operator center (bohr):      0.000000000000      0.000000000000      0.000000000000
 Gauge origin    (bohr):      0.000000000000      0.000000000000      0.000000000000
 Dipole origin   (bohr):      0.000000000000      0.000000000000      0.000000000000


     ************************************************************************
     ************************** Output from HERINT **************************
     ************************************************************************



                      Nuclear contribution to dipole moments
                      --------------------------------------

                 au               Debye          C m (/(10**-30)

      x     -0.00000010        -0.00000025        -0.00000085
      y      0.00000576         0.00001464         0.00004884
      z      0.00000000         0.00000000         0.00000000


  Time used in ONEDRV     is       2.34 seconds
  Time used in HUCKEL     is       0.59 seconds
  Time used in OVERLAP    is       0.34 seconds
  Time used in POPOVLP    is       0.66 seconds
  Time used in R2         is       0.43 seconds
  Time used in R4         is       0.52 seconds
  Time used in DIPLEN     is       0.56 seconds
  Time used in QUADRUP    is       1.14 seconds
  Time used in KINENE     is       0.59 seconds
  Time used in GABGEN     is       6.53 seconds
  Total CPU  time used in HERMIT:  13.69 seconds
  Total wall time used in HERMIT:  14.14 seconds


                        .----------------------------------.
                        | End of Integral Section (HERMIT) |
                        `----------------------------------'



                   .--------------------------------------------.
                   | Starting in Wave Function Section (SIRIUS) |
                   `--------------------------------------------'



@ Primary orbitals are deleted during canonical orthonormalization
@   because of detected numerical linear dependence or too large coefficients.
@ Eigenvalue threshold for num. lin. dep. =  1.00D-06

@  64 MO components are deleted in symmetry    1
 Overlap eigenvalues of the deleted orbitals:
  9.80D-07  9.70D-07  9.01D-07  8.28D-07  7.95D-07
  7.28D-07  6.86D-07  6.53D-07  6.23D-07  5.64D-07
  4.88D-07  4.74D-07  4.73D-07  4.48D-07  4.42D-07
  3.86D-07  3.64D-07  3.29D-07  3.14D-07  2.92D-07
  2.67D-07  2.57D-07  2.30D-07  2.27D-07  2.14D-07
  2.02D-07  1.82D-07  1.78D-07  1.61D-07  1.43D-07
  1.40D-07  1.32D-07  1.16D-07  1.08D-07  1.03D-07
  9.15D-08  8.32D-08  8.06D-08  7.49D-08  7.07D-08
  6.69D-08  6.62D-08  5.77D-08  5.68D-08  4.98D-08
  4.70D-08  4.33D-08  3.73D-08  3.28D-08  3.06D-08
  2.82D-08  2.70D-08  2.07D-08  1.87D-08  1.56D-08
  1.28D-08  1.10D-08  8.94D-09  7.37D-09  5.52D-09
  5.09D-09  3.28D-09  3.16D-09  8.70D-10

 Max MO coeff. of last deleted MO & limit:  2.32D+02  1.00D+03

WARNING: Orbitals have been deleted because of numerical
   linear dependence although not requested in input.

 *** Output from Huckel module :

     Using EWMO model:          T
     Using EHT  model:          F
     Number of Huckel orbitals each symmetry:   82

 EWMO - Energy Weighted Maximum Overlap - is a Huckel type method,
        which normally is better than Extended Huckel Theory.
 Reference: Linderberg and Ohrn, Propagators in Quantum Chemistry (Wiley, 1973)

 Huckel EWMO eigenvalues for symmetry :  1
          -20.684752     -20.683486     -15.677076     -15.674980     -11.359150
          -11.359082     -11.357769     -11.355196     -11.352150     -11.348123
          -11.346555     -11.345641     -11.345362     -11.345302      -1.964108
           -1.790031      -1.759034      -1.671445      -1.525369      -1.443608
           -1.340444      -1.181714      -1.160221      -1.085520      -0.995412
           -0.953581      -0.870160      -0.851985      -0.834962      -0.764582
           -0.761079      -0.727823      -0.693657      -0.681100      -0.645373
           -0.609220      -0.604855      -0.585238      -0.567776      -0.544141
           -0.521521      -0.520574      -0.505517      -0.494077      -0.484879
           -0.480611      -0.479444      -0.440146      -0.431877      -0.379599
           -0.376175      -0.334309      -0.281433      -0.244876      -0.229171
           -0.219702      -0.204256      -0.201181      -0.196150      -0.190466
           -0.166430      -0.142758      -0.138473      -0.131883      -0.129974
           -0.129105      -0.128790      -0.128093      -0.126029      -0.125571
           -0.124564      -0.123333      -0.109572      -0.106318      -0.100422
           -0.095501      -0.091917      -0.088850      -0.086677      -0.085099
           -0.082161      -0.079656

 **********************************************************************
 *SIRIUS* a direct, restricted step, second order MCSCF program       *
 **********************************************************************

 
     Date and time (Linux)  : Mon May 12 19:13:54 2025
     Host name              : xm047                                   

 Title lines from ".mol" input file:
     blah                                                                    
     blah                                                                    

 Print level on unit LUPRI =   2 is   0
 Print level on unit LUW4  =   2 is   5

@    Restricted, closed shell Hartree-Fock calculation.

@    Time-dependent Hartree-Fock calculation (random phase approximation).
 Fock matrices are calculated directly and in parallel without use of integrals on disk.

 Initial molecular orbitals are obtained according to
 ".MOSTART EWMO  " input option

     Wave function specification
     ============================
@    Wave function type        --- HF ---
@    Number of closed shell electrons         102
@    Number of electrons in active shells       0
@    Total charge of the molecule               0

@    Spin multiplicity and 2 M_S                1         0
@    Total number of symmetries                 1 (point group: C1 )
@    Reference state symmetry                   1 (irrep name : A  )

     Orbital specifications
     ======================
@    Abelian symmetry species          All |    1
@                                          |  A  
                                       --- |  ---
@    Occupied SCF orbitals              51 |   51
@    Secondary orbitals               1137 | 1137
@    Total number of orbitals         1188 | 1188
@    Number of basis functions        1252 | 1252

     Optimization information
     ========================
@    Number of configurations                 1
@    Number of orbital rotations          57987
     ------------------------------------------
@    Total number of variables            57988

     Maximum number of Fock   iterations      0
     Maximum number of DIIS   iterations     60
     Maximum number of QC-SCF iterations     60
     Threshold for SCF convergence     1.00D-05

    INFORMATION: Switched to "new" integral transformation (from 1988 ;-) )
    because more than 255 basis functions.


 ***********************************************
 ***** DIIS acceleration of SCF iterations *****
 ***********************************************

 C1-DIIS algorithm; max error vectors =    8

 Iter      Total energy        Error norm    Delta(E)  DIIS dim.
 -----------------------------------------------------------------------------
   1  Screening settings (-IFTHRS, JTDIIS, DIFDEN, times)  -10    1    T  1.17D+02  1.18D+02
@  1    -641.704805712        6.47349D+00   -6.42D+02    1
      Virial theorem: -V/T =      2.007701
@    MULPOP   C_a     0.49; C_b     0.13; C_c     0.35; C_d     0.13; C_e     0.26; C_f     0.13; C_g     0.32; C_h     0.15; C_i     0.41; C_j     0.18; 
@             N_a    -0.85; N_b     0.07; O_a    -0.76; O_b    -0.76; H_a     0.01; H_b    -0.02; H_c     0.35; H_d     0.34; H_e    -0.15; H_f    -0.20; 
@             H_g    -0.21; H_h    -0.23; H_i    -0.19; H_j    -0.08; H_k    -0.06; H_l     0.20; 
   1  Level shift: doubly occupied orbital energies shifted by -2.00D-01
 -----------------------------------------------------------------------------
   2  Screening settings (-IFTHRS, JTDIIS, DIFDEN, times)  -10    2    T  1.13D+02  1.13D+02
@  2    -643.884380760        2.88573D+00   -2.18D+00    2
      Virial theorem: -V/T =      2.001707
@    MULPOP   C_a    -0.16; C_b    -0.12; C_c     0.10; C_d     0.13; C_e     0.10; C_f    -0.26; C_g     0.20; C_h    -0.07; C_i     0.37; C_j    -0.45; 
@             N_a    -0.75; N_b    -0.16; O_a    -0.69; O_b    -0.66; H_a     0.54; H_b     0.27; H_c     0.06; H_d     0.13; H_e     0.17; H_f    -0.04; 
@             H_g    -0.03; H_h    -0.13; H_i     0.08; H_j     0.07; H_k     0.38; H_l     0.92; 
   2  Level shift: doubly occupied orbital energies shifted by -1.00D-01
 -----------------------------------------------------------------------------
   3  Screening settings (-IFTHRS, JTDIIS, DIFDEN, times)  -10    3    T  1.12D+02  1.12D+02
@  3    -644.273218622        7.84151D-01   -3.89D-01    3
      Virial theorem: -V/T =      2.001432
@    MULPOP   C_a     0.05; C_b    -0.26; C_c     0.16; C_d     0.03; C_e     0.08; C_f    -0.24; C_g     0.15; C_h    -0.01; C_i     0.27; C_j    -0.08; 
@             N_a    -0.83; N_b     0.57; O_a    -1.06; O_b    -1.18; H_a     0.53; H_b     0.27; H_c    -0.02; H_d     0.08; H_e     0.16; H_f     0.00; 
@             H_g     0.01; H_h    -0.07; H_i     0.09; H_j     0.06; H_k     0.40; H_l     0.83; 
   3  Level shift: doubly occupied orbital energies shifted by -5.00D-02
 -----------------------------------------------------------------------------
   4  Screening settings (-IFTHRS, JTDIIS, DIFDEN, times)  -10    4    T  1.11D+02  1.12D+02
@  4    -644.313370257        2.42932D-01   -4.02D-02    4
      Virial theorem: -V/T =      2.003343
@    MULPOP   C_a     0.11; C_b    -0.29; C_c     0.21; C_d     0.02; C_e     0.13; C_f    -0.23; C_g     0.20; C_h    -0.03; C_i     0.28; C_j    -0.11; 
@             N_a    -0.88; N_b     0.51; O_a    -1.03; O_b    -1.16; H_a     0.53; H_b     0.25; H_c    -0.05; H_d     0.06; H_e     0.15; H_f    -0.00; 
@             H_g     0.01; H_h    -0.07; H_i     0.08; H_j     0.06; H_k     0.41; H_l     0.83; 
   4  Level shift: doubly occupied orbital energies shifted by -2.50D-02
 -----------------------------------------------------------------------------
   5  Screening settings (-IFTHRS, JTDIIS, DIFDEN, times)  -10    5    T  1.11D+02  1.11D+02
@  5    -644.321043710        9.59476D-02   -7.67D-03    5
      Virial theorem: -V/T =      2.002707
@    MULPOP   C_a     0.10; C_b    -0.31; C_c     0.21; C_d     0.00; C_e     0.12; C_f    -0.24; C_g     0.19; C_h    -0.03; C_i     0.25; C_j    -0.09; 
@             N_a    -0.89; N_b     0.57; O_a    -1.04; O_b    -1.19; H_a     0.54; H_b     0.25; H_c    -0.05; H_d     0.07; H_e     0.15; H_f     0.01; 
@             H_g     0.02; H_h    -0.06; H_i     0.10; H_j     0.06; H_k     0.42; H_l     0.83; 
   5  Level shift: doubly occupied orbital energies shifted by -1.25D-02
 -----------------------------------------------------------------------------
   6  Screening settings (-IFTHRS, JTDIIS, DIFDEN, times)  -14    6    F  1.16D+02  1.16D+02
@  6    -644.322943231        4.61905D-02   -1.90D-03    6
      Virial theorem: -V/T =      2.002555
@    MULPOP   C_a     0.09; C_b    -0.31; C_c     0.22; C_d     0.00; C_e     0.13; C_f    -0.24; C_g     0.19; C_h    -0.03; C_i     0.26; C_j    -0.10; 
@             N_a    -0.90; N_b     0.57; O_a    -1.04; O_b    -1.19; H_a     0.55; H_b     0.25; H_c    -0.05; H_d     0.07; H_e     0.15; H_f     0.01; 
@             H_g     0.03; H_h    -0.06; H_i     0.10; H_j     0.06; H_k     0.42; H_l     0.83; 
 -----------------------------------------------------------------------------
   7  Screening settings (-IFTHRS, JTDIIS, DIFDEN, times)  -14    7    T  1.14D+02  1.15D+02
@  7    -644.323457493        2.19821D-02   -5.14D-04    7
      Virial theorem: -V/T =      2.002600
@    MULPOP   C_a     0.09; C_b    -0.31; C_c     0.22; C_d    -0.00; C_e     0.13; C_f    -0.25; C_g     0.19; C_h    -0.03; C_i     0.26; C_j    -0.10; 
@             N_a    -0.90; N_b     0.58; O_a    -1.04; O_b    -1.19; H_a     0.55; H_b     0.25; H_c    -0.05; H_d     0.07; H_e     0.15; H_f     0.01; 
@             H_g     0.03; H_h    -0.06; H_i     0.10; H_j     0.06; H_k     0.42; H_l     0.83; 
 -----------------------------------------------------------------------------
   8  Screening settings (-IFTHRS, JTDIIS, DIFDEN, times)  -14    8    T  1.14D+02  1.15D+02
@  8    -644.323565842        8.92012D-03   -1.08D-04    8
      Virial theorem: -V/T =      2.002597
@    MULPOP   C_a     0.09; C_b    -0.31; C_c     0.22; C_d    -0.00; C_e     0.13; C_f    -0.24; C_g     0.19; C_h    -0.03; C_i     0.26; C_j    -0.11; 
@             N_a    -0.90; N_b     0.58; O_a    -1.04; O_b    -1.19; H_a     0.55; H_b     0.25; H_c    -0.05; H_d     0.07; H_e     0.15; H_f     0.00; 
@             H_g     0.03; H_h    -0.07; H_i     0.10; H_j     0.06; H_k     0.42; H_l     0.83; 
 -----------------------------------------------------------------------------
   9  Screening settings (-IFTHRS, JTDIIS, DIFDEN, times)  -14    9    T  1.14D+02  1.14D+02
@  9    -644.323581584        3.17263D-03   -1.57D-05    8
      Virial theorem: -V/T =      2.002586
@    MULPOP   C_a     0.09; C_b    -0.31; C_c     0.22; C_d    -0.00; C_e     0.13; C_f    -0.24; C_g     0.19; C_h    -0.03; C_i     0.26; C_j    -0.11; 
@             N_a    -0.90; N_b     0.58; O_a    -1.04; O_b    -1.19; H_a     0.55; H_b     0.25; H_c    -0.05; H_d     0.07; H_e     0.15; H_f     0.00; 
@             H_g     0.02; H_h    -0.07; H_i     0.10; H_j     0.06; H_k     0.42; H_l     0.83; 
 -----------------------------------------------------------------------------
  10  Screening settings (-IFTHRS, JTDIIS, DIFDEN, times)  -14   10    T  1.14D+02  1.14D+02
@ 10    -644.323584528        1.62033D-03   -2.94D-06    8
      Virial theorem: -V/T =      2.002587
@    MULPOP   C_a     0.09; C_b    -0.31; C_c     0.22; C_d    -0.00; C_e     0.13; C_f    -0.24; C_g     0.19; C_h    -0.03; C_i     0.26; C_j    -0.11; 
@             N_a    -0.90; N_b     0.58; O_a    -1.04; O_b    -1.19; H_a     0.55; H_b     0.25; H_c    -0.05; H_d     0.07; H_e     0.15; H_f     0.00; 
@             H_g     0.02; H_h    -0.06; H_i     0.10; H_j     0.06; H_k     0.42; H_l     0.83; 
 -----------------------------------------------------------------------------
  11  Screening settings (-IFTHRS, JTDIIS, DIFDEN, times)  -14   11    T  1.13D+02  1.13D+02
@ 11    -644.323585432        9.23280D-04   -9.04D-07    8
      Virial theorem: -V/T =      2.002588
@    MULPOP   C_a     0.09; C_b    -0.31; C_c     0.22; C_d    -0.00; C_e     0.13; C_f    -0.24; C_g     0.19; C_h    -0.03; C_i     0.26; C_j    -0.11; 
@             N_a    -0.90; N_b     0.58; O_a    -1.04; O_b    -1.19; H_a     0.55; H_b     0.25; H_c    -0.05; H_d     0.07; H_e     0.15; H_f     0.00; 
@             H_g     0.02; H_h    -0.06; H_i     0.10; H_j     0.06; H_k     0.42; H_l     0.83; 
 -----------------------------------------------------------------------------
  12  Screening settings (-IFTHRS, JTDIIS, DIFDEN, times)  -14   12    T  1.13D+02  1.13D+02
@ 12    -644.323585725        2.82583D-04   -2.93D-07    8
      Virial theorem: -V/T =      2.002587
@    MULPOP   C_a     0.08; C_b    -0.31; C_c     0.22; C_d    -0.00; C_e     0.13; C_f    -0.24; C_g     0.19; C_h    -0.03; C_i     0.26; C_j    -0.11; 
@             N_a    -0.90; N_b     0.58; O_a    -1.04; O_b    -1.19; H_a     0.55; H_b     0.25; H_c    -0.05; H_d     0.07; H_e     0.15; H_f     0.00; 
@             H_g     0.02; H_h    -0.06; H_i     0.10; H_j     0.06; H_k     0.42; H_l     0.83; 
 -----------------------------------------------------------------------------
  13  Screening settings (-IFTHRS, JTDIIS, DIFDEN, times)  -14   13    T  1.12D+02  1.13D+02
@ 13    -644.323585753        1.21951D-04   -2.88D-08    8
      Virial theorem: -V/T =      2.002587
@    MULPOP   C_a     0.08; C_b    -0.31; C_c     0.22; C_d    -0.00; C_e     0.13; C_f    -0.24; C_g     0.19; C_h    -0.03; C_i     0.26; C_j    -0.11; 
@             N_a    -0.90; N_b     0.58; O_a    -1.04; O_b    -1.19; H_a     0.55; H_b     0.25; H_c    -0.05; H_d     0.07; H_e     0.15; H_f     0.00; 
@             H_g     0.02; H_h    -0.06; H_i     0.10; H_j     0.06; H_k     0.42; H_l     0.83; 
 -----------------------------------------------------------------------------
  14  Screening settings (-IFTHRS, JTDIIS, DIFDEN, times)  -14   14    T  1.11D+02  1.11D+02
@ 14    -644.323585756        3.95857D-05   -2.34D-09    8
      Virial theorem: -V/T =      2.002587
@    MULPOP   C_a     0.08; C_b    -0.31; C_c     0.22; C_d    -0.00; C_e     0.13; C_f    -0.24; C_g     0.19; C_h    -0.03; C_i     0.26; C_j    -0.11; 
@             N_a    -0.90; N_b     0.58; O_a    -1.04; O_b    -1.19; H_a     0.55; H_b     0.25; H_c    -0.05; H_d     0.07; H_e     0.15; H_f     0.00; 
@             H_g     0.02; H_h    -0.06; H_i     0.10; H_j     0.06; H_k     0.42; H_l     0.83; 
 -----------------------------------------------------------------------------
  15  Screening settings (-IFTHRS, JTDIIS, DIFDEN, times)  -14   15    T  1.11D+02  1.12D+02
@ 15    -644.323585756        1.66293D-05   -3.29D-10    8
      Virial theorem: -V/T =      2.002587
@    MULPOP   C_a     0.08; C_b    -0.31; C_c     0.22; C_d    -0.00; C_e     0.13; C_f    -0.24; C_g     0.19; C_h    -0.03; C_i     0.26; C_j    -0.11; 
@             N_a    -0.90; N_b     0.58; O_a    -1.04; O_b    -1.19; H_a     0.55; H_b     0.25; H_c    -0.05; H_d     0.07; H_e     0.15; H_f     0.00; 
@             H_g     0.02; H_h    -0.06; H_i     0.10; H_j     0.06; H_k     0.42; H_l     0.83; 
 -----------------------------------------------------------------------------
  16  Screening settings (-IFTHRS, JTDIIS, DIFDEN, times)  -14   16    T  1.11D+02  1.12D+02
@ 16    -644.323585756        7.39631D-06   -4.18D-11    8

@ *** DIIS converged in  16 iterations !
@     Converged SCF energy, gradient:   -644.323585755985    7.40D-06
    - total time used in SIRFCK :              0.00 seconds


 *** SCF orbital energy analysis ***

 Only the 20 lowest virtual orbital energies printed in each symmetry.

 Number of electrons :  102
 Orbital occupations :   51

 Sym       Hartree-Fock orbital energies

1 A     -20.58201966   -20.57926151   -15.83274263   -15.60252552   -11.31474337
        -11.28405016   -11.28135915   -11.27371737   -11.26752354   -11.26673462
        -11.25091822   -11.24428197   -11.23887216   -11.23612857    -1.57244200
         -1.37012125    -1.24785882    -1.13680187    -1.11576642    -1.08574240
         -1.04311145    -0.99009703    -0.93559288    -0.86285335    -0.81407082
         -0.78767519    -0.77599948    -0.76956481    -0.73464659    -0.72422190
         -0.70552331    -0.69057315    -0.68911056    -0.65889047    -0.63643114
         -0.61124538    -0.59662043    -0.56493340    -0.55642004    -0.54112934
         -0.53488453    -0.52456724    -0.51211627    -0.48967448    -0.47552747
         -0.47278569    -0.45486958    -0.43435632    -0.40196350    -0.33378857
         -0.25814649    -0.00153096     0.00372165     0.00723222     0.01075239
          0.01100815     0.01341995     0.01650218     0.01762930     0.01933632
          0.02101032     0.02152179     0.02262466     0.02306707     0.02444192
          0.02478837     0.02593765     0.02973533     0.03021489     0.03143844
          0.03210107

    E(LUMO) :    -0.00153096 au (symmetry 1)
  - E(HOMO) :    -0.25814649 au (symmetry 1)
  ------------------------------------------
    gap     :     0.25661553 au

 --- Writing SIRIFC interface file

 CPU and wall time for SCF :    2012.172    2020.836


                       .-----------------------------------.
                       | --- Final results from SIRIUS --- |
                       `-----------------------------------'


@    Spin multiplicity:           1
@    Spatial symmetry:            1 ( irrep  A   in C1  )
@    Total charge of molecule:    0

@    Final HF energy:            -644.323585755985                 
@    Nuclear repulsion:           704.495638200713
@    Electronic energy:         -1348.819223956698

@    Final gradient norm:           0.000007396308

 
     Date and time (Linux)  : Mon May 12 19:47:38 2025
     Host name              : xm047                                   

File label for MO orbitals:  12May25   FOCKDIIS

 (Only coefficients > 0.0100 are printed.)

 Molecular orbitals for symmetry species 1  (A  )
 ------------------------------------------------

    Orbital        42       43       44       45       46       47       48
   2 C_a :1s    -0.0330  -0.0051  -0.0000   0.0036   0.0005   0.0000  -0.0000
   4 C_a :1s     0.0061   0.1449   0.0000  -0.0367  -0.0717  -0.0000  -0.0000
   5 C_a :1s    -0.0119   0.0134  -0.0000  -0.0320  -0.0155  -0.0000  -0.0000
   6 C_a :1s    -0.0011  -0.0624   0.0000   0.0070   0.0851  -0.0000   0.0000
   7 C_a :2px    0.1034   0.0156  -0.0000  -0.0059  -0.0006   0.0000   0.0000
   8 C_a :2py   -0.0708  -0.0325   0.0000  -0.0012  -0.0001  -0.0000   0.0000
   9 C_a :2pz    0.0000   0.0000   0.0435  -0.0000  -0.0000  -0.0122   0.0011
  13 C_a :2px   -0.0037  -0.0490  -0.0000   0.0363  -0.0015   0.0000  -0.0000
  14 C_a :2py   -0.0616  -0.0230   0.0000   0.0024   0.0213   0.0000   0.0000
  15 C_a :2pz    0.0000  -0.0000   0.0289   0.0000   0.0000   0.0086   0.0074
  16 C_a :2px    0.0040   0.1067  -0.0000   0.0214  -0.0585  -0.0000  -0.0000
  17 C_a :2py   -0.0747   0.0463   0.0000  -0.0262  -0.0996  -0.0000   0.0000
  18 C_a :2pz    0.0000  -0.0000   0.0357  -0.0000   0.0000   0.0826   0.0444
  19 C_a :2px   -0.0057  -0.0281   0.0000  -0.0274   0.0400  -0.0000   0.0000
  20 C_a :2py   -0.0107  -0.0367   0.0000   0.0116   0.0626  -0.0000   0.0000
  21 C_a :2pz    0.0000  -0.0000  -0.0185   0.0000   0.0000  -0.0047  -0.0081
  30 C_a :3d1+   0.0000  -0.0000   0.0039   0.0000   0.0000  -0.0116  -0.0006
  32 C_a :3d2-   0.0066  -0.0371   0.0000  -0.0110  -0.0023   0.0000  -0.0000
  33 C_a :3d1-   0.0000  -0.0000  -0.0197   0.0000   0.0000   0.0240   0.0006
  35 C_a :3d1+  -0.0000   0.0000  -0.0379  -0.0000  -0.0000   0.0233  -0.0006
  36 C_a :3d2+   0.0115  -0.0226  -0.0000  -0.0310  -0.0112  -0.0000   0.0000
  37 C_a :3d2-   0.0401   0.0132  -0.0000   0.0413   0.0466  -0.0000   0.0000
  38 C_a :3d1-   0.0000  -0.0000  -0.0189   0.0000   0.0000   0.0060   0.0079
  39 C_a :3d0   -0.0128  -0.0143   0.0000  -0.0156  -0.0110   0.0000  -0.0000
  40 C_a :3d1+   0.0000  -0.0000  -0.0230   0.0000   0.0000  -0.0098  -0.0083
  41 C_a :3d2+  -0.0814  -0.0535   0.0000   0.0035  -0.0418   0.0000  -0.0000
  56 C_a :4f3-   0.0111   0.0297  -0.0000   0.0024   0.0034  -0.0000   0.0000
  60 C_a :4f1+  -0.0101   0.0043   0.0000   0.0037   0.0033  -0.0000   0.0000
  64 C_b :1s    -0.0377  -0.0604   0.0000  -0.0054  -0.0003  -0.0000  -0.0000
  66 C_b :1s     0.0257   0.1764  -0.0000   0.0618  -0.0600   0.0000  -0.0000
  67 C_b :1s     0.0193   0.1091  -0.0000   0.0382   0.0525  -0.0000   0.0000
  68 C_b :1s    -0.0078   0.0052   0.0000   0.0334   0.0089  -0.0000   0.0000
  69 C_b :2px   -0.0822   0.0180   0.0000   0.0085   0.0007  -0.0000  -0.0000
  70 C_b :2py    0.2463   0.2105   0.0000   0.0103   0.0006  -0.0000   0.0000
  71 C_b :2pz    0.0000  -0.0000  -0.0401   0.0000   0.0000   0.1652   0.0103
  75 C_b :2px   -0.0372  -0.0981  -0.0000   0.0256   0.0080   0.0000  -0.0000
  76 C_b :2py    0.0091  -0.0225   0.0000  -0.0261   0.0196  -0.0000  -0.0000
  77 C_b :2pz   -0.0000   0.0000  -0.0293   0.0000  -0.0000   0.0449   0.0039
  78 C_b :2px   -0.1101   0.0196   0.0000  -0.0911  -0.1056   0.0000  -0.0000
  79 C_b :2py    0.0168  -0.0027  -0.0000   0.0186  -0.0385  -0.0000  -0.0000
  80 C_b :2pz    0.0000  -0.0000   0.0560  -0.0000   0.0000   0.0294   0.0426
  81 C_b :2px    0.0257   0.0254  -0.0000   0.0011  -0.0756   0.0000  -0.0000
  82 C_b :2py   -0.0071   0.0215  -0.0000  -0.0019  -0.0495   0.0000  -0.0000
  83 C_b :2pz   -0.0000   0.0000   0.0053  -0.0000  -0.0000  -0.0060   0.0111
  89 C_b :3d2-  -0.0099  -0.0143   0.0000  -0.0010   0.0003  -0.0000  -0.0000
  94 C_b :3d2-   0.0405  -0.0507   0.0000  -0.0041  -0.0217  -0.0000  -0.0000
  95 C_b :3d1-  -0.0000   0.0000  -0.0014  -0.0000  -0.0000  -0.0262  -0.0063
  96 C_b :3d0   -0.0226   0.0204   0.0000   0.0063  -0.0018   0.0000  -0.0000
  97 C_b :3d1+  -0.0000   0.0000  -0.0642  -0.0000  -0.0000   0.0065  -0.0097
  98 C_b :3d2+   0.0354  -0.0376   0.0000   0.0192   0.0360  -0.0000   0.0000
  99 C_b :3d2-  -0.0372  -0.0598   0.0000  -0.0883  -0.0998   0.0000  -0.0000
 100 C_b :3d1-  -0.0000   0.0000  -0.0070   0.0000   0.0000  -0.0090  -0.0171
 101 C_b :3d0    0.0225   0.0354  -0.0000   0.0174   0.0011   0.0000   0.0000
 102 C_b :3d1+  -0.0000   0.0000   0.0175  -0.0000  -0.0000  -0.0185  -0.0174
 103 C_b :3d2+   0.0171   0.0142  -0.0000   0.0248   0.0269  -0.0000  -0.0000
 118 C_b :4f3-  -0.0043   0.0254  -0.0000  -0.0074   0.0052  -0.0000  -0.0000
 119 C_b :4f2-  -0.0000  -0.0000   0.0297   0.0000  -0.0000  -0.0078   0.0041
 123 C_b :4f2+  -0.0000   0.0000   0.0066  -0.0000  -0.0000  -0.0111   0.0009
 126 C_c :1s    -0.0512  -0.0519  -0.0000   0.0052   0.0008   0.0000   0.0000
 128 C_c :1s     0.0304   0.2723  -0.0000  -0.0095   0.0695   0.0000  -0.0000
 129 C_c :1s     0.0276   0.2117  -0.0000  -0.0084  -0.0237  -0.0000   0.0000
 130 C_c :1s     0.0817   0.0984  -0.0000  -0.0167   0.0364  -0.0000   0.0000
 131 C_c :2px    0.1412   0.1030   0.0000  -0.0139  -0.0022  -0.0000   0.0000
 132 C_c :2py   -0.2652  -0.2516  -0.0000  -0.0104  -0.0004   0.0000  -0.0000
 133 C_c :2pz    0.0000  -0.0000  -0.1463   0.0000   0.0000   0.3176   0.0153
 137 C_c :2px    0.0579  -0.0519   0.0000  -0.0079   0.0178  -0.0000   0.0000
 138 C_c :2py   -0.0755  -0.0428   0.0000  -0.0330   0.0134  -0.0000  -0.0000
 139 C_c :2pz   -0.0000   0.0000  -0.0216  -0.0000  -0.0000   0.0076  -0.0062
 140 C_c :2px   -0.0640  -0.0230   0.0000   0.0041   0.0396  -0.0000  -0.0000
 141 C_c :2py   -0.0146   0.0118  -0.0000  -0.0114   0.0923   0.0000  -0.0000
 142 C_c :2pz    0.0000  -0.0000   0.0912   0.0000   0.0000   0.0168  -0.0972
 143 C_c :2px   -0.0041   0.0108   0.0000   0.0536   0.0350  -0.0000   0.0000
 144 C_c :2py    0.0142   0.0455  -0.0000  -0.0235  -0.0386  -0.0000  -0.0000
 145 C_c :2pz   -0.0000   0.0000   0.0428  -0.0000  -0.0000   0.0024   0.0132
 146 C_c :3d2-  -0.0118  -0.0142  -0.0000  -0.0007  -0.0000   0.0000  -0.0000
 151 C_c :3d2-  -0.0140  -0.0250  -0.0000  -0.0002  -0.0003   0.0000   0.0000
 154 C_c :3d1+  -0.0000   0.0000   0.0086  -0.0000  -0.0000  -0.0148  -0.0005
 156 C_c :3d2-   0.0775  -0.0688   0.0000   0.0124   0.0266   0.0000   0.0000
 157 C_c :3d1-  -0.0000   0.0000  -0.0359  -0.0000  -0.0000  -0.0375  -0.0143
 158 C_c :3d0    0.0089   0.0105  -0.0000  -0.0022  -0.0027  -0.0000   0.0000
 159 C_c :3d1+  -0.0000   0.0000   0.0087  -0.0000  -0.0000  -0.0692  -0.0105
 160 C_c :3d2+   0.0548  -0.0552  -0.0000   0.0040   0.0012  -0.0000   0.0000
 161 C_c :3d2-   0.0674   0.0125  -0.0000   0.0351   0.0791  -0.0000  -0.0000
 162 C_c :3d1-   0.0000   0.0000  -0.0513   0.0000   0.0000  -0.0250  -0.0360
 163 C_c :3d0   -0.0097   0.0072  -0.0000  -0.0187  -0.0260   0.0000  -0.0000
 164 C_c :3d1+   0.0000  -0.0000  -0.0998   0.0000   0.0000  -0.0316  -0.0117
 165 C_c :3d2+  -0.0572  -0.0451   0.0000  -0.0774  -0.1430   0.0000  -0.0000
 180 C_c :4f3-  -0.0423   0.0457  -0.0000   0.0005   0.0121  -0.0000   0.0000
 181 C_c :4f2-   0.0000  -0.0000   0.0193   0.0000   0.0000   0.0083   0.0031
 185 C_c :4f2+   0.0000  -0.0000   0.0093   0.0000   0.0000   0.0189   0.0082
 186 C_c :4f3+  -0.0229   0.0277   0.0000  -0.0045  -0.0196  -0.0000  -0.0000
 188 C_d :1s     0.0006  -0.0673   0.0000  -0.0098  -0.0010   0.0000  -0.0000
 190 C_d :1s     0.0179   0.2975  -0.0000  -0.0582  -0.0535  -0.0000   0.0000
 191 C_d :1s    -0.0240   0.1510  -0.0000  -0.0196  -0.0686   0.0000  -0.0000
 192 C_d :1s     0.0765  -0.0220   0.0000   0.0343  -0.0558   0.0000  -0.0000
 193 C_d :2px   -0.1689  -0.0971  -0.0000   0.0177   0.0027   0.0000   0.0000
 194 C_d :2py    0.1124   0.3703  -0.0000   0.0252   0.0011   0.0000  -0.0000
 195 C_d :2pz    0.0000   0.0000  -0.2164   0.0000   0.0000   0.3509   0.0135
 199 C_d :2px    0.0653  -0.0998  -0.0000   0.0197  -0.0034   0.0000   0.0000
 200 C_d :2py    0.1142   0.0249   0.0000   0.0348   0.0122   0.0000   0.0000
 201 C_d :2pz   -0.0000   0.0000   0.0328  -0.0000  -0.0000  -0.0367  -0.0098
 202 C_d :2px    0.0275   0.0044  -0.0000   0.0495  -0.0251  -0.0000   0.0000
 203 C_d :2py   -0.0055  -0.0434  -0.0000  -0.0676  -0.0489   0.0000  -0.0000
 204 C_d :2pz    0.0000  -0.0000  -0.1922   0.0000   0.0000   0.1302   0.1055
 205 C_d :2px   -0.0188  -0.0030  -0.0000  -0.0461   0.0221  -0.0000   0.0000
 206 C_d :2py    0.0269  -0.0298   0.0000   0.0256   0.0232   0.0000  -0.0000
 207 C_d :2pz    0.0000  -0.0000  -0.0368   0.0000   0.0000  -0.0008  -0.0407
 208 C_d :3d2-  -0.0078  -0.0168  -0.0000  -0.0007   0.0000  -0.0000  -0.0000
 213 C_d :3d2-  -0.0068  -0.0286   0.0000  -0.0007   0.0005   0.0000   0.0000
 214 C_d :3d1-  -0.0000   0.0000   0.0088  -0.0000  -0.0000  -0.0100  -0.0003
 216 C_d :3d1+  -0.0000   0.0000  -0.0040  -0.0000  -0.0000   0.0100   0.0006
 218 C_d :3d2-   0.0817  -0.0544   0.0000   0.0311   0.0126   0.0000  -0.0000
 219 C_d :3d1-   0.0000  -0.0000  -0.0058   0.0000   0.0000  -0.0211   0.0010
 220 C_d :3d0   -0.0054   0.0303   0.0000  -0.0024   0.0096  -0.0000   0.0000
 221 C_d :3d1+  -0.0000  -0.0000  -0.0422   0.0000  -0.0000  -0.0518  -0.0104
 222 C_d :3d2+  -0.0450  -0.0248   0.0000   0.0119  -0.0204  -0.0000  -0.0000
 223 C_d :3d2-  -0.0220  -0.0714   0.0000   0.0228   0.0320   0.0000  -0.0000
 224 C_d :3d1-  -0.0000   0.0000   0.0272  -0.0000  -0.0000  -0.0430  -0.0110
 225 C_d :3d0    0.0074   0.0318  -0.0000  -0.0020   0.0494  -0.0000   0.0000
 226 C_d :3d1+  -0.0000   0.0000  -0.0424  -0.0000  -0.0000  -0.0470  -0.0029
 227 C_d :3d2+   0.0269   0.0283   0.0000   0.1164   0.0419  -0.0000   0.0000
 242 C_d :4f3-  -0.0335  -0.0192  -0.0000  -0.0210   0.0184  -0.0000  -0.0000
 243 C_d :4f2-   0.0000  -0.0000   0.0090   0.0000   0.0000   0.0345   0.0056
 244 C_d :4f1-  -0.0044  -0.0107  -0.0000   0.0029   0.0014   0.0000  -0.0000
 245 C_d :4f0   -0.0000   0.0000   0.0086  -0.0000  -0.0000  -0.0189  -0.0047
 246 C_d :4f1+  -0.0103  -0.0026   0.0000  -0.0025   0.0026   0.0000  -0.0000
 248 C_d :4f3+   0.0166  -0.0008   0.0000   0.0005   0.0055  -0.0000   0.0000
 250 C_e :1s    -0.0111  -0.0867  -0.0000   0.0099  -0.0003  -0.0000  -0.0000
 252 C_e :1s    -0.0251   0.3453  -0.0000   0.0527  -0.0049  -0.0000  -0.0000
 253 C_e :1s    -0.0639   0.1220  -0.0000   0.0135   0.0596  -0.0000  -0.0000
 254 C_e :1s    -0.0060  -0.0479  -0.0000  -0.0449   0.0024  -0.0000  -0.0000
 255 C_e :2px   -0.0906   0.0866   0.0000  -0.0304  -0.0022  -0.0000  -0.0000
 256 C_e :2py   -0.0255  -0.3626   0.0000  -0.0252  -0.0007  -0.0000   0.0000
 257 C_e :2pz   -0.0000   0.0000  -0.2904  -0.0000  -0.0000   0.2395   0.0021
 261 C_e :2px    0.0495   0.0824   0.0000   0.0101  -0.0065  -0.0000  -0.0000
 262 C_e :2py    0.0730  -0.0184   0.0000   0.0328   0.0539   0.0000   0.0000
 264 C_e :2px    0.0040  -0.0427  -0.0000   0.0640  -0.0072   0.0000  -0.0000
 265 C_e :2py   -0.0275  -0.0293   0.0000  -0.1324  -0.0687   0.0000  -0.0000
 266 C_e :2pz   -0.0000   0.0000  -0.0142  -0.0000  -0.0000   0.0813  -0.0249
 267 C_e :2px   -0.0081  -0.0224  -0.0000  -0.0528  -0.0380   0.0000  -0.0000
 268 C_e :2py   -0.0260  -0.0447   0.0000   0.0206   0.0234   0.0000   0.0000
 269 C_e :2pz   -0.0000   0.0000  -0.0316  -0.0000   0.0000   0.0148   0.0123
 270 C_e :3d2-   0.0026  -0.0171   0.0000  -0.0013  -0.0002  -0.0000   0.0000
 275 C_e :3d2-   0.0030  -0.0303  -0.0000  -0.0031   0.0003  -0.0000  -0.0000
 276 C_e :3d1-  -0.0000   0.0000  -0.0081  -0.0000  -0.0000   0.0104   0.0004
 278 C_e :3d1+  -0.0000   0.0000   0.0114  -0.0000  -0.0000  -0.0021   0.0010
 280 C_e :3d2-  -0.0296  -0.0501  -0.0000  -0.0106  -0.0142  -0.0000  -0.0000
 281 C_e :3d1-   0.0000  -0.0000  -0.0629   0.0000   0.0000  -0.0403  -0.0004
 282 C_e :3d0   -0.0114   0.0196  -0.0000  -0.0167  -0.0091   0.0000   0.0000
 283 C_e :3d1+   0.0000  -0.0000  -0.0191   0.0000   0.0000  -0.0599   0.0020
 284 C_e :3d2+   0.0676  -0.0331  -0.0000  -0.0531  -0.0018  -0.0000  -0.0000
 285 C_e :3d2-  -0.0038  -0.0539   0.0000  -0.0629  -0.0322  -0.0000  -0.0000
 286 C_e :3d1-  -0.0000   0.0000  -0.0012  -0.0000  -0.0000  -0.0364   0.0139
 287 C_e :3d0    0.0043   0.0292  -0.0000   0.0482   0.0283  -0.0000   0.0000
 288 C_e :3d1+  -0.0000   0.0000   0.0012  -0.0000  -0.0000  -0.0780  -0.0134
 289 C_e :3d2+   0.0143  -0.0606   0.0000  -0.0952   0.0467  -0.0000  -0.0000
 304 C_e :4f3-  -0.0502   0.0176   0.0000   0.0160   0.0311  -0.0000   0.0000
 305 C_e :4f2-   0.0000   0.0000   0.0116   0.0000   0.0000   0.0096  -0.0008
 307 C_e :4f0    0.0000  -0.0000   0.0067  -0.0000   0.0000  -0.0108   0.0011
 309 C_e :4f2+  -0.0000   0.0000   0.0117  -0.0000  -0.0000   0.0134  -0.0010
 310 C_e :4f3+   0.0160   0.0014   0.0000   0.0216   0.0129   0.0000   0.0000
 312 C_f :1s     0.0403  -0.0441   0.0000  -0.0179  -0.0061   0.0000   0.0000
 314 C_f :1s    -0.1104   0.2645  -0.0000   0.0741  -0.0533   0.0000   0.0000
 315 C_f :1s    -0.0130   0.1218  -0.0000   0.0168   0.0150  -0.0000   0.0000
 316 C_f :1s    -0.0445  -0.0578  -0.0000   0.0395   0.0333  -0.0000   0.0000
 317 C_f :2px    0.0655  -0.1087  -0.0000   0.0359   0.0049   0.0000   0.0000
 318 C_f :2py   -0.2722   0.2684  -0.0000   0.0479   0.0128  -0.0000   0.0000
 319 C_f :2pz   -0.0000   0.0000  -0.3334  -0.0000  -0.0000   0.1079  -0.0059
 323 C_f :2px    0.0777  -0.0108  -0.0000  -0.0726  -0.0235  -0.0000  -0.0000
 324 C_f :2py    0.0040   0.0578  -0.0000  -0.0679  -0.0569  -0.0000  -0.0000
 325 C_f :2pz    0.0000  -0.0000  -0.0083   0.0000   0.0000   0.0072   0.0307
 326 C_f :2px   -0.0048   0.0005   0.0000   0.0315   0.1314  -0.0000   0.0000
 327 C_f :2py   -0.0237  -0.0286   0.0000  -0.1263  -0.0607  -0.0000  -0.0000
 328 C_f :2pz   -0.0000   0.0000  -0.0138  -0.0000  -0.0000   0.0311  -0.0839
 329 C_f :2px   -0.0158  -0.0399   0.0000   0.0802  -0.0011   0.0000   0.0000
 330 C_f :2py   -0.0412   0.0382  -0.0000  -0.0661  -0.0374  -0.0000  -0.0000
 331 C_f :2pz   -0.0000   0.0000   0.0518  -0.0000  -0.0000   0.0125   0.0505
 332 C_f :3d2-   0.0103  -0.0147   0.0000  -0.0011  -0.0005   0.0000  -0.0000
 337 C_f :3d2-   0.0141  -0.0239  -0.0000  -0.0036  -0.0005  -0.0000  -0.0000
 338 C_f :3d1-   0.0000  -0.0000   0.0121   0.0000   0.0000   0.0012   0.0005
 342 C_f :3d2-  -0.0159  -0.0435   0.0000   0.0599  -0.0574  -0.0000   0.0000
 343 C_f :3d1-  -0.0000   0.0000   0.0315  -0.0000  -0.0000  -0.0630  -0.0093
 344 C_f :3d0    0.0089   0.0243  -0.0000   0.0273  -0.0076   0.0000  -0.0000
 345 C_f :3d1+   0.0000   0.0000  -0.0373   0.0000   0.0000  -0.0748   0.0053
 346 C_f :3d2+  -0.0532  -0.0499   0.0000  -0.0370   0.0266   0.0000   0.0000
 347 C_f :3d2-   0.1085  -0.0157   0.0000   0.1674   0.1444  -0.0000   0.0000
 348 C_f :3d1-   0.0000  -0.0000  -0.0012   0.0000   0.0000  -0.0938  -0.0487
 349 C_f :3d0   -0.0207   0.0459  -0.0000  -0.0572  -0.1160   0.0000  -0.0000
 350 C_f :3d1+  -0.0000   0.0000   0.0159   0.0000  -0.0000  -0.1229  -0.0816
 351 C_f :3d2+  -0.0618  -0.0413   0.0000   0.0024  -0.0161   0.0000  -0.0000
 366 C_f :4f3-  -0.0404  -0.0546  -0.0000  -0.0299   0.0249  -0.0000  -0.0000
 367 C_f :4f2-  -0.0000   0.0000   0.0208  -0.0000  -0.0000   0.0074  -0.0107
 371 C_f :4f2+  -0.0000   0.0000   0.0087   0.0000  -0.0000  -0.0120  -0.0001
 372 C_f :4f3+   0.0082  -0.0007  -0.0000   0.0744  -0.0442   0.0000   0.0000
 374 C_g :1s     0.0570  -0.0737   0.0000   0.0245  -0.0087  -0.0000  -0.0000
 376 C_g :1s    -0.1120   0.2258  -0.0000  -0.1595   0.0263   0.0000   0.0000
 377 C_g :1s    -0.0708   0.0960  -0.0000   0.0108   0.0106   0.0000   0.0000
 378 C_g :1s    -0.1040  -0.0188   0.0000  -0.0754   0.0989  -0.0000  -0.0000
 379 C_g :2px   -0.1726   0.0062   0.0000  -0.0718   0.0182   0.0000   0.0000
 380 C_g :2py    0.2973  -0.2382   0.0000  -0.0465  -0.0173   0.0000  -0.0000
 381 C_g :2pz   -0.0000  -0.0000  -0.3472  -0.0000  -0.0000  -0.1336  -0.0133
 385 C_g :2px   -0.0348   0.1289   0.0000   0.0626  -0.0092   0.0000   0.0000
 386 C_g :2py    0.1125   0.0368  -0.0000  -0.0376  -0.0908  -0.0000  -0.0000
 387 C_g :2pz    0.0000   0.0000   0.0223   0.0000   0.0000  -0.0069   0.0347
 388 C_g :2px    0.0444   0.0415   0.0000   0.0685   0.0175  -0.0000   0.0000
 389 C_g :2py    0.0327   0.0798  -0.0000  -0.0281  -0.0526  -0.0000  -0.0000
 390 C_g :2pz   -0.0000   0.0000  -0.0700  -0.0000  -0.0000  -0.0397   0.1148
 391 C_g :2px   -0.0094   0.0518  -0.0000   0.0216   0.0017  -0.0000   0.0000
 392 C_g :2py    0.0081   0.0294  -0.0000   0.0022  -0.0076  -0.0000  -0.0000
 393 C_g :2pz    0.0000  -0.0000  -0.0058   0.0000   0.0000  -0.0254  -0.0535
 394 C_g :3d2-   0.0154  -0.0097  -0.0000  -0.0020  -0.0016   0.0000  -0.0000
 399 C_g :3d2-   0.0206  -0.0208   0.0000  -0.0016   0.0002   0.0000   0.0000
 400 C_g :3d1-   0.0000  -0.0000  -0.0108   0.0000   0.0000   0.0020  -0.0010
 402 C_g :3d1+   0.0000  -0.0000   0.0107   0.0000   0.0000   0.0115   0.0006
 404 C_g :3d2-  -0.0747  -0.0638   0.0000   0.0603   0.0600   0.0000   0.0000
 405 C_g :3d1-  -0.0000   0.0000  -0.0299  -0.0000  -0.0000  -0.0489  -0.0097
 406 C_g :3d0   -0.0127   0.0225   0.0000  -0.0385   0.0332  -0.0000  -0.0000
 407 C_g :3d1+  -0.0000   0.0000   0.0172  -0.0000  -0.0000  -0.0739  -0.0273
 408 C_g :3d2+   0.0024  -0.0120   0.0000  -0.0357  -0.0465   0.0000  -0.0000
 409 C_g :3d2-  -0.0001  -0.0583  -0.0000  -0.0329  -0.0855   0.0000   0.0000
 410 C_g :3d1-  -0.0000  -0.0000  -0.0153  -0.0000   0.0000  -0.0754   0.0707
 411 C_g :3d0    0.0005   0.0613  -0.0000   0.0126   0.0653   0.0000  -0.0000
 412 C_g :3d1+   0.0000  -0.0000   0.0130  -0.0000   0.0000  -0.0870   0.0773
 413 C_g :3d2+   0.0139   0.0274  -0.0000  -0.0080  -0.0541  -0.0000  -0.0000
 429 C_g :4f2-  -0.0000   0.0000   0.0089  -0.0000  -0.0000  -0.0136  -0.0221
 430 C_g :4f1-  -0.0074   0.0005  -0.0000  -0.0066  -0.0147  -0.0000   0.0000
 431 C_g :4f0    0.0000  -0.0000   0.0114   0.0000   0.0000   0.0060   0.0075
 432 C_g :4f1+  -0.0068  -0.0033  -0.0000   0.0036  -0.0169   0.0000   0.0000
 433 C_g :4f2+   0.0000  -0.0000   0.0092   0.0000   0.0000   0.0071   0.0105
 434 C_g :4f3+   0.0293   0.0118  -0.0000   0.0483  -0.0420  -0.0000  -0.0000
 436 C_h :1s     0.0382  -0.0061  -0.0000  -0.0359  -0.0073   0.0000   0.0000
 438 C_h :1s    -0.0620   0.2640  -0.0000   0.0157   0.0097  -0.0000   0.0000
 439 C_h :1s    -0.0711   0.1132  -0.0000  -0.0313   0.0249  -0.0000  -0.0000
 440 C_h :1s     0.0351   0.0883   0.0000   0.0428  -0.0701  -0.0000   0.0000
 441 C_h :2px    0.1809  -0.0330  -0.0000   0.0834  -0.0194  -0.0000  -0.0000
 442 C_h :2py   -0.2478   0.0906   0.0000   0.0834   0.0547   0.0000  -0.0000
 443 C_h :2pz    0.0000  -0.0000  -0.3382   0.0000   0.0000  -0.2628  -0.0155
 447 C_h :2px   -0.0242   0.0424   0.0000   0.1350  -0.0236   0.0000   0.0000
 448 C_h :2py   -0.1042   0.0068  -0.0000  -0.0418   0.0697   0.0000   0.0000
 449 C_h :2pz   -0.0000   0.0000  -0.0182   0.0000  -0.0000   0.0087  -0.0211
 450 C_h :2px   -0.0172   0.0087  -0.0000   0.0539  -0.0902   0.0000  -0.0000
 451 C_h :2py   -0.0174   0.0421   0.0000   0.0346   0.0207  -0.0000  -0.0000
 452 C_h :2pz    0.0000  -0.0000  -0.1355   0.0000   0.0000  -0.1273  -0.1252
 453 C_h :2px    0.0278   0.0660  -0.0000  -0.0836  -0.0379  -0.0000  -0.0000
 454 C_h :2py    0.0264  -0.0210   0.0000   0.0554   0.0241   0.0000   0.0000
 455 C_h :2pz    0.0000  -0.0000  -0.0246   0.0000   0.0000  -0.0145  -0.0135
 456 C_h :3d2-   0.0142  -0.0064   0.0000  -0.0012  -0.0023  -0.0000   0.0000
 461 C_h :3d2-   0.0171  -0.0146  -0.0000   0.0003  -0.0025   0.0000   0.0000
 464 C_h :3d1+   0.0000  -0.0000  -0.0130   0.0000   0.0000  -0.0051  -0.0005
 466 C_h :3d2-  -0.0478  -0.0727   0.0000  -0.0250   0.0295  -0.0000  -0.0000
 467 C_h :3d1-  -0.0000  -0.0000   0.0266  -0.0000  -0.0000  -0.0526  -0.0117
 468 C_h :3d0    0.0032   0.0088  -0.0000  -0.0158  -0.0329   0.0000   0.0000
 469 C_h :3d1+  -0.0000   0.0000  -0.0415  -0.0000  -0.0000  -0.0613  -0.0470
 470 C_h :3d2+   0.0151  -0.0421  -0.0000  -0.0829   0.0004   0.0000  -0.0000
 471 C_h :3d2-   0.0188  -0.0457  -0.0000   0.0973  -0.0026   0.0000  -0.0000
 472 C_h :3d1-   0.0000   0.0000   0.0927   0.0000   0.0000  -0.0401  -0.0266
 473 C_h :3d0   -0.0166  -0.0187  -0.0000   0.0431   0.0415  -0.0000   0.0000
 474 C_h :3d1+   0.0000  -0.0000   0.0278   0.0000   0.0000  -0.0836  -0.1228
 475 C_h :3d2+  -0.0521  -0.1069   0.0000  -0.1579  -0.0810   0.0000  -0.0000
 490 C_h :4f3-  -0.0111  -0.0415   0.0000  -0.0405   0.0720  -0.0000   0.0000
 491 C_h :4f2-   0.0000  -0.0000   0.0201   0.0000   0.0000  -0.0146   0.0082
 492 C_h :4f1-  -0.0007  -0.0055   0.0000   0.0196   0.0111   0.0000   0.0000
 493 C_h :4f0   -0.0000   0.0000   0.0048  -0.0000  -0.0000   0.0111   0.0001
 494 C_h :4f1+  -0.0044  -0.0012   0.0000   0.0393  -0.0096   0.0000   0.0000
 495 C_h :4f2+   0.0000  -0.0000   0.0060  -0.0000  -0.0000  -0.0190   0.0039
 496 C_h :4f3+   0.0125  -0.0032  -0.0000  -0.0139  -0.0076  -0.0000   0.0000
 498 C_i :1s     0.0646  -0.0419   0.0000   0.0324   0.0492  -0.0000  -0.0000
 500 C_i :1s    -0.1104   0.0852  -0.0000   0.1105   0.1560   0.0000  -0.0000
 501 C_i :1s    -0.0304   0.0840  -0.0000  -0.0281   0.0113  -0.0000  -0.0000
 502 C_i :1s    -0.0529  -0.0096   0.0000  -0.0323  -0.0211   0.0000  -0.0000
 503 C_i :2px   -0.0460  -0.0181  -0.0000  -0.1411  -0.0091   0.0000   0.0000
 504 C_i :2py    0.2117  -0.0782  -0.0000  -0.0757  -0.0796  -0.0000   0.0000
 505 C_i :2pz    0.0000  -0.0000  -0.2503   0.0000   0.0000  -0.3095  -0.0090
 509 C_i :2px   -0.0298   0.0192  -0.0000  -0.0438   0.0248  -0.0000  -0.0000
 510 C_i :2py   -0.0531   0.0198  -0.0000  -0.2089   0.0259   0.0000  -0.0000
 511 C_i :2pz   -0.0000   0.0000  -0.0152  -0.0000  -0.0000  -0.0010  -0.0148
 512 C_i :2px   -0.0498  -0.0160  -0.0000   0.0209  -0.0135   0.0000   0.0000
 513 C_i :2py   -0.0151   0.0707   0.0000   0.0601   0.0794  -0.0000   0.0000
 514 C_i :2pz    0.0000  -0.0000  -0.1109  -0.0000   0.0000  -0.0509   0.2453
 515 C_i :2px    0.0249  -0.0813   0.0000   0.0510  -0.0289   0.0000   0.0000
 516 C_i :2py    0.0138  -0.0519   0.0000  -0.0006  -0.0736   0.0000  -0.0000
 517 C_i :2pz   -0.0000   0.0000   0.0153  -0.0000  -0.0000   0.0173   0.0532
 523 C_i :3d2-   0.0132  -0.0080  -0.0000   0.0008  -0.0070  -0.0000  -0.0000
 524 C_i :3d1-   0.0000  -0.0000  -0.0106  -0.0000   0.0000  -0.0092  -0.0021
 528 C_i :3d2-  -0.0055  -0.0618   0.0000   0.0766   0.0335  -0.0000  -0.0000
 529 C_i :3d1-  -0.0000   0.0000  -0.0176  -0.0000  -0.0000  -0.0454   0.0147
 530 C_i :3d0    0.0052   0.0203   0.0000   0.0364   0.0176   0.0000  -0.0000
 531 C_i :3d1+   0.0000  -0.0000   0.0523   0.0000   0.0000  -0.0539  -0.0050
 532 C_i :3d2+  -0.0050  -0.0009  -0.0000  -0.1785   0.0730   0.0000  -0.0000
 533 C_i :3d2-  -0.0193  -0.0465   0.0000  -0.0313   0.0314  -0.0000   0.0000
 534 C_i :3d1-  -0.0000   0.0000   0.0891  -0.0000  -0.0000  -0.0450  -0.0010
 535 C_i :3d0   -0.0006   0.0128   0.0000   0.0274  -0.0351   0.0000   0.0000
 536 C_i :3d1+  -0.0000   0.0000   0.1238  -0.0000  -0.0000  -0.0394   0.0083
 537 C_i :3d2+   0.0228   0.0045  -0.0000   0.1945  -0.0155  -0.0000   0.0000
 551 C_i :4f3+   0.0005   0.0022  -0.0000   0.0047  -0.0117   0.0000   0.0000
 552 C_i :4f3-   0.0236  -0.0099   0.0000  -0.1079  -0.0272  -0.0000   0.0000
 553 C_i :4f2-   0.0000  -0.0000   0.0237  -0.0000   0.0000  -0.0159   0.0121
 557 C_i :4f2+   0.0000  -0.0000   0.0053   0.0000   0.0000   0.0064   0.0352
 558 C_i :4f3+  -0.0219   0.0109   0.0000  -0.0006  -0.0609   0.0000   0.0000
 560 C_j :1s    -0.0004   0.0185   0.0000  -0.1044   0.0149  -0.0000  -0.0000
 562 C_j :1s    -0.0403   0.1036   0.0000  -0.2822  -0.1148  -0.0000  -0.0000
 563 C_j :1s     0.0115   0.0321  -0.0000   0.1035   0.0472  -0.0000   0.0000
 564 C_j :1s     0.0715   0.0114  -0.0000   0.1200  -0.0644  -0.0000   0.0000
 565 C_j :2px    0.0679   0.0002   0.0000   0.1570   0.0497  -0.0000  -0.0000
 566 C_j :2py   -0.0232  -0.0077  -0.0000   0.2740  -0.1478   0.0000   0.0000
 567 C_j :2pz    0.0000  -0.0000  -0.1815   0.0000   0.0000  -0.2713  -0.0181
 568 C_j :2px   -0.0022   0.0013  -0.0000  -0.0135   0.0010   0.0000   0.0000
 569 C_j :2py    0.0032  -0.0016   0.0000  -0.0155  -0.0011   0.0000   0.0000
 571 C_j :2px    0.0112   0.0029  -0.0000  -0.1787   0.0734   0.0000  -0.0000
 572 C_j :2py   -0.0812  -0.0016   0.0000   0.1100   0.0322   0.0000   0.0000
 573 C_j :2pz   -0.0000   0.0000   0.0336   0.0000  -0.0000  -0.0325  -0.0061
 574 C_j :2px    0.0545   0.0278   0.0000  -0.1101  -0.1679   0.0000  -0.0000
 575 C_j :2py    0.0168   0.0043   0.0000   0.1825   0.2001  -0.0000   0.0000
 576 C_j :2pz   -0.0000   0.0000   0.3467   0.0000  -0.0000  -0.0966  -0.2758
 577 C_j :2px   -0.0412   0.0324  -0.0000  -0.0148   0.0767  -0.0000   0.0000
 578 C_j :2py   -0.0310   0.0607  -0.0000  -0.0627   0.0378  -0.0000   0.0000
 579 C_j :2pz    0.0000  -0.0000  -0.0079   0.0000   0.0000   0.0081  -0.0241
 585 C_j :3d2-   0.0064  -0.0010  -0.0000  -0.0005  -0.0182   0.0000  -0.0000
 588 C_j :3d1+   0.0000  -0.0000  -0.0109   0.0000   0.0000  -0.0151   0.0015
 589 C_j :3d2+   0.0002   0.0012   0.0000   0.0025  -0.0131   0.0000   0.0000
 590 C_j :3d2-   0.0372  -0.0311   0.0000   0.1127  -0.0191  -0.0000   0.0000
 591 C_j :3d1-   0.0000  -0.0000   0.0249  -0.0000   0.0000   0.0015   0.0040
 592 C_j :3d0   -0.0128   0.0005  -0.0000  -0.0638   0.0012   0.0000   0.0000
 593 C_j :3d1+  -0.0000   0.0000   0.0146  -0.0000  -0.0000  -0.0317  -0.0246
 594 C_j :3d2+  -0.0063  -0.0208   0.0000  -0.0159  -0.0821   0.0000   0.0000
 595 C_j :3d2-  -0.0050   0.0123  -0.0000  -0.0308  -0.0927   0.0000   0.0000
 596 C_j :3d1-   0.0000  -0.0000  -0.0504   0.0000   0.0000   0.0035  -0.0247
 597 C_j :3d0   -0.0103   0.0029   0.0000  -0.0591   0.0514  -0.0000  -0.0000
 598 C_j :3d1+  -0.0000   0.0000   0.0742   0.0000  -0.0000  -0.0116   0.0343
 599 C_j :3d2+   0.0020   0.0438   0.0000  -0.2318  -0.0513   0.0000  -0.0000
 607 C_j :4f3-  -0.0045   0.0012  -0.0000   0.0094   0.0123  -0.0000  -0.0000
 613 C_j :4f3+  -0.0001   0.0023  -0.0000  -0.0043  -0.0108  -0.0000  -0.0000
 614 C_j :4f3-   0.0238  -0.0122   0.0000   0.0432   0.0110  -0.0000   0.0000
 615 C_j :4f2-  -0.0000   0.0000   0.0130   0.0000  -0.0000   0.0018  -0.0181
 616 C_j :4f1-  -0.0025  -0.0068   0.0000   0.0304  -0.0043   0.0000  -0.0000
 617 C_j :4f0    0.0000  -0.0000   0.0059  -0.0000   0.0000   0.0020  -0.0100
 620 C_j :4f3+  -0.0054   0.0115  -0.0000  -0.0715  -0.0735   0.0000  -0.0000
 622 N_a :1s    -0.0216  -0.0193   0.0000  -0.0017  -0.0003   0.0000   0.0000
 625 N_a :1s     0.1088  -0.0743  -0.0000  -0.0034   0.0157  -0.0000   0.0000
 626 N_a :1s    -0.1166   0.0291   0.0000  -0.0334  -0.0948   0.0000  -0.0000
 627 N_a :2px    0.0061   0.0261   0.0000   0.0032   0.0003  -0.0000  -0.0000
 628 N_a :2py    0.0410   0.0259  -0.0000   0.0020   0.0002   0.0000  -0.0000
 629 N_a :2pz   -0.0000   0.0000   0.1422  -0.0000  -0.0000  -0.2459  -0.0121
 635 N_a :2pz    0.0000  -0.0000   0.0073   0.0000   0.0000  -0.0208  -0.0024
 636 N_a :2px   -0.0474  -0.0373   0.0000  -0.0099   0.0215   0.0000  -0.0000
 637 N_a :2py   -0.0628   0.0145  -0.0000   0.0273   0.0291   0.0000  -0.0000
 638 N_a :2pz   -0.0000   0.0000   0.0012  -0.0000  -0.0000  -0.0418  -0.0152
 639 N_a :2px    0.0054   0.0174  -0.0000   0.0213  -0.0162   0.0000  -0.0000
 640 N_a :2py    0.0188   0.0076  -0.0000  -0.0086  -0.0004  -0.0000  -0.0000
 657 N_a :3d2-   0.0075  -0.0034   0.0000  -0.0180  -0.0347  -0.0000  -0.0000
 658 N_a :3d1-   0.0000  -0.0000   0.0077   0.0000   0.0000   0.0118   0.0037
 659 N_a :3d0   -0.0105  -0.0045   0.0000   0.0123   0.0179   0.0000   0.0000
 660 N_a :3d1+   0.0000  -0.0000   0.0083   0.0000   0.0000   0.0108   0.0032
 684 N_b :1s     0.0135  -0.0064   0.0000  -0.0257   0.0072   0.0000   0.0000
 686 N_b :1s    -0.0231   0.0122  -0.0000  -0.2078   0.0541   0.0000   0.0000
 687 N_b :1s    -0.0782   0.0042  -0.0000   0.0744   0.0596   0.0000  -0.0000
 688 N_b :1s    -0.0046  -0.0369  -0.0000  -0.2150   0.0015  -0.0000  -0.0000
 689 N_b :2px    0.0152  -0.0077   0.0000  -0.0881   0.1165  -0.0000   0.0000
 690 N_b :2py    0.0308   0.0004  -0.0000  -0.2621   0.0429   0.0000  -0.0000
 691 N_b :2pz    0.0000  -0.0000   0.0349  -0.0000   0.0000   0.0355  -0.0062
 695 N_b :2px   -0.0124  -0.0055  -0.0000  -0.0169  -0.0656   0.0000   0.0000
 696 N_b :2py   -0.0205  -0.0027  -0.0000   0.0145   0.0483   0.0000   0.0000
 697 N_b :2pz   -0.0000   0.0000  -0.0162   0.0000  -0.0000  -0.0099   0.0033
 698 N_b :2px   -0.0449  -0.0280   0.0000   0.1442  -0.0352   0.0000   0.0000
 699 N_b :2py   -0.0013  -0.1003   0.0000   0.2114  -0.1138  -0.0000   0.0000
 700 N_b :2pz    0.0000  -0.0000  -0.1557  -0.0000   0.0000  -0.0110   0.1038
 701 N_b :2px    0.0395  -0.0185   0.0000   0.0281  -0.0673   0.0000  -0.0000
 702 N_b :2py    0.0140  -0.0272   0.0000   0.0479   0.0177   0.0000   0.0000
 703 N_b :2pz   -0.0000   0.0000   0.0171   0.0000  -0.0000  -0.0183  -0.0073
 704 N_b :3d2-  -0.0006   0.0014  -0.0000  -0.0198  -0.0043   0.0000  -0.0000
 707 N_b :3d1+   0.0000  -0.0000  -0.0014   0.0000  -0.0000  -0.0024   0.0184
 708 N_b :3d2+  -0.0002  -0.0001  -0.0000   0.0113  -0.0162   0.0000   0.0000
 709 N_b :3d2-  -0.0004   0.0029  -0.0000  -0.0495  -0.0071  -0.0000   0.0000
 710 N_b :3d1-   0.0000  -0.0000  -0.0067   0.0000   0.0000  -0.0098  -0.0237
 712 N_b :3d1+  -0.0000   0.0000  -0.0037  -0.0000   0.0000  -0.0069   0.0491
 713 N_b :3d2+  -0.0008   0.0003   0.0000   0.0312  -0.0366   0.0000   0.0000
 714 N_b :3d2-   0.0041  -0.0130   0.0000   0.1140   0.0525   0.0000   0.0000
 715 N_b :3d1-   0.0000  -0.0000  -0.0047  -0.0000   0.0000  -0.0028   0.0174
 717 N_b :3d1+  -0.0000   0.0000   0.0069  -0.0000   0.0000   0.0083  -0.0538
 718 N_b :3d2+   0.0070   0.0037   0.0000  -0.0329   0.0822  -0.0000  -0.0000
 719 N_b :3d2-  -0.0092  -0.0302   0.0000   0.0703   0.2968  -0.0000   0.0000
 720 N_b :3d1-  -0.0000   0.0000  -0.0131  -0.0000  -0.0000   0.0057   0.0996
 721 N_b :3d0    0.0039   0.0151   0.0000  -0.0316  -0.0081  -0.0000  -0.0000
 722 N_b :3d1+   0.0000  -0.0000  -0.0023   0.0000   0.0000  -0.0076  -0.2042
 723 N_b :3d2+   0.0026  -0.0384   0.0000   0.1334   0.2725  -0.0000   0.0000
 731 N_b :4f3-  -0.0019   0.0015  -0.0000  -0.0018  -0.0207   0.0000  -0.0000
 737 N_b :4f3+  -0.0016   0.0001  -0.0000   0.0121   0.0055  -0.0000  -0.0000
 738 N_b :4f3-  -0.0036   0.0067   0.0000  -0.0385  -0.0467  -0.0000   0.0000
 739 N_b :4f2-   0.0000  -0.0000  -0.0015   0.0000   0.0000   0.0007   0.0196
 740 N_b :4f1-   0.0009  -0.0040  -0.0000   0.0299  -0.0013   0.0000  -0.0000
 742 N_b :4f1+  -0.0002  -0.0005   0.0000   0.0074  -0.0201  -0.0000   0.0000
 743 N_b :4f2+   0.0000  -0.0000   0.0030   0.0000   0.0000   0.0007   0.0257
 744 N_b :4f3+   0.0013   0.0071  -0.0000  -0.0708   0.0459   0.0000  -0.0000
 746 O_a :1s     0.0122  -0.0015  -0.0000  -0.0106   0.0033  -0.0000  -0.0000
 748 O_a :1s    -0.0009   0.0003   0.0000   0.0221   0.0554   0.0000   0.0000
 749 O_a :1s     0.0041   0.0091   0.0000  -0.0423   0.2859  -0.0000  -0.0000
 750 O_a :1s    -0.0074   0.0221   0.0000  -0.0118  -0.0545   0.0000  -0.0000
 751 O_a :2px   -0.0088   0.0059  -0.0000   0.1112  -0.6813   0.0000  -0.0000
 752 O_a :2py   -0.0157  -0.0145  -0.0000   0.4002  -0.4356   0.0000   0.0000
 753 O_a :2pz   -0.0000   0.0000   0.0566  -0.0000  -0.0000   0.0656   0.6478
 757 O_a :2px   -0.0029   0.0028   0.0000   0.0073  -0.1347  -0.0000   0.0000
 758 O_a :2py   -0.0028  -0.0016   0.0000   0.0595  -0.0863  -0.0000  -0.0000
 759 O_a :2pz    0.0000  -0.0000   0.0056   0.0000   0.0000   0.0052   0.0927
 760 O_a :2px   -0.0265   0.0782  -0.0000  -0.1637  -0.2049   0.0000  -0.0000
 761 O_a :2py   -0.0021   0.0512  -0.0000  -0.1344  -0.3064   0.0000  -0.0000
 762 O_a :2pz   -0.0000   0.0000   0.0462  -0.0000  -0.0000   0.0227   0.3075
 763 O_a :2px   -0.0055   0.0074  -0.0000  -0.0285  -0.0255   0.0000  -0.0000
 764 O_a :2py   -0.0004   0.0115  -0.0000  -0.0168  -0.0238   0.0000  -0.0000
 771 O_a :3d2-  -0.0004   0.0009   0.0000  -0.0102  -0.0093   0.0000   0.0000
 772 O_a :3d1-  -0.0000   0.0000   0.0014   0.0000  -0.0000   0.0013   0.0151
 775 O_a :3d2+  -0.0005   0.0003   0.0000  -0.0054   0.0175  -0.0000   0.0000
 776 O_a :3d2-  -0.0011   0.0008  -0.0000   0.0016  -0.0188   0.0000   0.0000
 777 O_a :3d1-   0.0000  -0.0000   0.0020  -0.0000   0.0000   0.0010   0.0216
 778 O_a :3d0   -0.0002  -0.0001  -0.0000  -0.0006   0.0103  -0.0000   0.0000
 779 O_a :3d1+  -0.0000   0.0000  -0.0017  -0.0000  -0.0000  -0.0006  -0.0162
 780 O_a :3d2+   0.0010  -0.0011  -0.0000  -0.0037   0.0466   0.0000   0.0000
 781 O_a :3d2-  -0.0026   0.0098   0.0000  -0.0134  -0.0001  -0.0000   0.0000
 782 O_a :3d1-  -0.0000   0.0000   0.0109  -0.0000  -0.0000   0.0033   0.0415
[...]
      ----------------------------------------------------------------
         1    5.96818D-02  0.00D+00  5.97D-02  2.36D+01    0.00000D+00
         2    6.20753D-02  0.00D+00  6.21D-02  2.45D+01    2.15000D-02
         3    7.03782D-02  0.00D+00  7.04D-02  2.74D+01    4.30000D-02

 ** RSPCTL MICROITERATION NUMBER    7

       No.  Residual tot.,    conf., and orb.    Bnorm      Frequency 
      ----------------------------------------------------------------
         1    2.05752D-02  0.00D+00  2.06D-02  2.36D+01    0.00000D+00
         2    2.14248D-02  0.00D+00  2.14D-02  2.45D+01    2.15000D-02
         3    2.43702D-02  0.00D+00  2.44D-02  2.74D+01    4.30000D-02

 *** THE REQUESTED    3 SOLUTION VECTORS CONVERGED

 Convergence of RSP solution vectors, threshold = 1.00D-03
 ---------------------------------------------------------------
 (dimension of paired reduced space:   42)
 RSP solution vector no.    1; norm of residual   8.71D-04
 RSP solution vector no.    2; norm of residual   8.76D-04
 RSP solution vector no.    3; norm of residual   8.90D-04

 *** RSPCTL MICROITERATIONS CONVERGED

@ QRLRVE: SINGLET SOLUTION FOR SYMMETRY    1  ( A  )    LABEL   YDIPLEN     FREQUENCY   0.000000D+00

@ QRLRVE:  << XDIPLEN  ; YDIPLEN  >> (   0.00000):     198.840921239    

@ QRLRVE:  << YDIPLEN  ; YDIPLEN  >> (   0.00000):     240.562982852    

@ QRLRVE:  << ZDIPLEN  ; YDIPLEN  >> (   0.00000):    2.575208231501E-14

@ QRLRVE: SINGLET SOLUTION FOR SYMMETRY    1  ( A  )    LABEL   YDIPLEN     FREQUENCY   0.215000D-01

@ QRLRVE:  << XDIPLEN  ; YDIPLEN  >> (   0.02150):     204.566388884    

@ QRLRVE:  << YDIPLEN  ; YDIPLEN  >> (   0.02150):     244.124572367    

@ QRLRVE:  << ZDIPLEN  ; YDIPLEN  >> (   0.02150):    2.592746824420E-14

@ QRLRVE: SINGLET SOLUTION FOR SYMMETRY    1  ( A  )    LABEL   YDIPLEN     FREQUENCY   0.430000D-01

@ QRLRVE:  << XDIPLEN  ; YDIPLEN  >> (   0.04300):     223.901832921    

@ QRLRVE:  << YDIPLEN  ; YDIPLEN  >> (   0.04300):     256.083094775    

@ QRLRVE:  << ZDIPLEN  ; YDIPLEN  >> (   0.04300):    2.646307827486E-14


 QRLRVE -- linear response calculation for symmetry  1  ( A  )
 QRLRVE -- operator label : ZDIPLEN 
 QRLRVE -- operator spin  :   0
 QRLRVE -- frequencies :  0.000000  0.021500  0.043000



 ---  SOLVING SETS OF LINEAR EQUATIONS FOR LINEAR RESPONSE PROPERTIES ---

 Operator symmetry = 1  ( A  ); triplet =   F


 ** RSPCTL MICROITERATION NUMBER    1

       No.  Residual tot.,    conf., and orb.    Bnorm      Frequency 
      ----------------------------------------------------------------
         1    3.07029D+00  0.00D+00  3.07D+00  7.50D+00    0.00000D+00
         2    3.07352D+00  0.00D+00  3.07D+00  7.53D+00    2.15000D-02
         3    3.08330D+00  0.00D+00  3.08D+00  7.62D+00    4.30000D-02

 ** RSPCTL MICROITERATION NUMBER    2

       No.  Residual tot.,    conf., and orb.    Bnorm      Frequency 
      ----------------------------------------------------------------
         1    7.55777D-01  0.00D+00  7.56D-01  7.87D+00    0.00000D+00
         2    7.58118D-01  0.00D+00  7.58D-01  7.90D+00    2.15000D-02
         3    7.65248D-01  0.00D+00  7.65D-01  8.00D+00    4.30000D-02

 ** RSPCTL MICROITERATION NUMBER    3

       No.  Residual tot.,    conf., and orb.    Bnorm      Frequency 
      ----------------------------------------------------------------
         1    1.56708D-01  0.00D+00  1.57D-01  7.90D+00    0.00000D+00
         2    1.58036D-01  0.00D+00  1.58D-01  7.93D+00    2.15000D-02
         3    1.62121D-01  0.00D+00  1.62D-01  8.03D+00    4.30000D-02

 ** RSPCTL MICROITERATION NUMBER    4

       No.  Residual tot.,    conf., and orb.    Bnorm      Frequency 
      ----------------------------------------------------------------
         1    4.40280D-02  0.00D+00  4.40D-02  7.90D+00    0.00000D+00
         2    4.49618D-02  0.00D+00  4.50D-02  7.94D+00    2.15000D-02
         3    4.79273D-02  0.00D+00  4.79D-02  8.03D+00    4.30000D-02

 ** RSPCTL MICROITERATION NUMBER    5

       No.  Residual tot.,    conf., and orb.    Bnorm      Frequency 
      ----------------------------------------------------------------
         1    1.69470D-02  0.00D+00  1.69D-02  7.90D+00    0.00000D+00
         2    1.76081D-02  0.00D+00  1.76D-02  7.94D+00    2.15000D-02
         3    1.97252D-02  0.00D+00  1.97D-02  8.03D+00    4.30000D-02

 ** RSPCTL MICROITERATION NUMBER    6

       No.  Residual tot.,    conf., and orb.    Bnorm      Frequency 
      ----------------------------------------------------------------
         1    6.31507D-03  0.00D+00  6.32D-03  7.90D+00    0.00000D+00
         2    6.64651D-03  0.00D+00  6.65D-03  7.94D+00    2.15000D-02
         3    7.72810D-03  0.00D+00  7.73D-03  8.03D+00    4.30000D-02

 *** THE REQUESTED    3 SOLUTION VECTORS CONVERGED

 Convergence of RSP solution vectors, threshold = 1.00D-03
 ---------------------------------------------------------------
 (dimension of paired reduced space:   36)
 RSP solution vector no.    1; norm of residual   7.99D-04
 RSP solution vector no.    2; norm of residual   8.37D-04
 RSP solution vector no.    3; norm of residual   9.62D-04

 *** RSPCTL MICROITERATIONS CONVERGED

@ QRLRVE: SINGLET SOLUTION FOR SYMMETRY    1  ( A  )    LABEL   ZDIPLEN     FREQUENCY   0.000000D+00

@ QRLRVE:  << XDIPLEN  ; ZDIPLEN  >> (   0.00000):    1.921423016736E-14

@ QRLRVE:  << YDIPLEN  ; ZDIPLEN  >> (   0.00000):    1.937371498444E-14

@ QRLRVE:  << ZDIPLEN  ; ZDIPLEN  >> (   0.00000):     89.9245810050    

@ QRLRVE: SINGLET SOLUTION FOR SYMMETRY    1  ( A  )    LABEL   ZDIPLEN     FREQUENCY   0.215000D-01

@ QRLRVE:  << XDIPLEN  ; ZDIPLEN  >> (   0.02150):    1.942811656006E-14

@ QRLRVE:  << YDIPLEN  ; ZDIPLEN  >> (   0.02150):    1.942935268224E-14

@ QRLRVE:  << ZDIPLEN  ; ZDIPLEN  >> (   0.02150):     90.0695755365    

@ QRLRVE: SINGLET SOLUTION FOR SYMMETRY    1  ( A  )    LABEL   ZDIPLEN     FREQUENCY   0.430000D-01

@ QRLRVE:  << XDIPLEN  ; ZDIPLEN  >> (   0.04300):    2.009300611390E-14

@ QRLRVE:  << YDIPLEN  ; ZDIPLEN  >> (   0.04300):    1.956087534799E-14

@ QRLRVE:  << ZDIPLEN  ; ZDIPLEN  >> (   0.04300):     90.5098543665    
 
 ======================================================================
 ---  L I N E A R   R E S P O N S E   F U N C T I O N S --- 
 ======================================================================

 The -<<A;B>>(omega_b) functions from vectors generated
 in a *QUADRA calculation of <<A;B,C>>(omega_b,omega_c)

 Note: the accuracy of off-diagonal elements will be linear
 in the convergence threshold THCLR =  1.00D-03


 Perturbation symmetry.     KSYMOP:           1
 Perturbation spin symmetry.TRPLET:           F
 Orbital variables.         KZWOPT:       57987
 Configuration variables.   KZCONF:           0
 Total number of variables. KZVAR :       57987

@ Singlet linear response function in a.u.

@ A operator, symmetry, frequency:   XDIPLEN    1 -0.000000
@ B operator, symmetry, frequency:   XDIPLEN    1  0.000000

@ Value of linear response -<<A;B>>(omega):     476.032542690828

@ Singlet linear response function in a.u.

@ A operator, symmetry, frequency:   YDIPLEN    1 -0.000000
@ B operator, symmetry, frequency:   XDIPLEN    1  0.000000

@ Value of linear response -<<A;B>>(omega):     198.830216605089

@ Singlet linear response function in a.u.

@ A operator, symmetry, frequency:   ZDIPLEN    1 -0.000000
@ B operator, symmetry, frequency:   XDIPLEN    1  0.000000

@ Value of linear response -<<A;B>>(omega):       0.000000000000

@ Singlet linear response function in a.u.

@ A operator, symmetry, frequency:   XDIPLEN    1 -0.021500
@ B operator, symmetry, frequency:   XDIPLEN    1  0.021500

@ Value of linear response -<<A;B>>(omega):     486.185279567371

@ Singlet linear response function in a.u.

@ A operator, symmetry, frequency:   YDIPLEN    1 -0.021500
@ B operator, symmetry, frequency:   XDIPLEN    1  0.021500

@ Value of linear response -<<A;B>>(omega):     204.554931237147

@ Singlet linear response function in a.u.

@ A operator, symmetry, frequency:   ZDIPLEN    1 -0.021500
@ B operator, symmetry, frequency:   XDIPLEN    1  0.021500

@ Value of linear response -<<A;B>>(omega):       0.000000000000

@ Singlet linear response function in a.u.

@ A operator, symmetry, frequency:   XDIPLEN    1 -0.000000
@ B operator, symmetry, frequency:   YDIPLEN    1  0.000000

@ Value of linear response -<<A;B>>(omega):     198.840921239028

@ Singlet linear response function in a.u.

@ A operator, symmetry, frequency:   YDIPLEN    1 -0.000000
@ B operator, symmetry, frequency:   YDIPLEN    1  0.000000

@ Value of linear response -<<A;B>>(omega):     240.562982851595

@ Singlet linear response function in a.u.

@ A operator, symmetry, frequency:   ZDIPLEN    1 -0.000000
@ B operator, symmetry, frequency:   YDIPLEN    1  0.000000

@ Value of linear response -<<A;B>>(omega):       0.000000000000

@ Singlet linear response function in a.u.

@ A operator, symmetry, frequency:   XDIPLEN    1 -0.021500
@ B operator, symmetry, frequency:   YDIPLEN    1  0.021500

@ Value of linear response -<<A;B>>(omega):     204.566388883677

@ Singlet linear response function in a.u.

@ A operator, symmetry, frequency:   YDIPLEN    1 -0.021500
@ B operator, symmetry, frequency:   YDIPLEN    1  0.021500

@ Value of linear response -<<A;B>>(omega):     244.124572366843

@ Singlet linear response function in a.u.

@ A operator, symmetry, frequency:   ZDIPLEN    1 -0.021500
@ B operator, symmetry, frequency:   YDIPLEN    1  0.021500

@ Value of linear response -<<A;B>>(omega):       0.000000000000

@ Singlet linear response function in a.u.

@ A operator, symmetry, frequency:   XDIPLEN    1 -0.000000
@ B operator, symmetry, frequency:   ZDIPLEN    1  0.000000

@ Value of linear response -<<A;B>>(omega):       0.000000000000

@ Singlet linear response function in a.u.

@ A operator, symmetry, frequency:   YDIPLEN    1 -0.000000
@ B operator, symmetry, frequency:   ZDIPLEN    1  0.000000

@ Value of linear response -<<A;B>>(omega):       0.000000000000

@ Singlet linear response function in a.u.

@ A operator, symmetry, frequency:   ZDIPLEN    1 -0.000000
@ B operator, symmetry, frequency:   ZDIPLEN    1  0.000000

@ Value of linear response -<<A;B>>(omega):      89.924581005045

@ Singlet linear response function in a.u.

@ A operator, symmetry, frequency:   XDIPLEN    1 -0.021500
@ B operator, symmetry, frequency:   ZDIPLEN    1  0.021500

@ Value of linear response -<<A;B>>(omega):       0.000000000000

@ Singlet linear response function in a.u.

@ A operator, symmetry, frequency:   YDIPLEN    1 -0.021500
@ B operator, symmetry, frequency:   ZDIPLEN    1  0.021500

@ Value of linear response -<<A;B>>(omega):       0.000000000000

@ Singlet linear response function in a.u.

@ A operator, symmetry, frequency:   ZDIPLEN    1 -0.021500
@ B operator, symmetry, frequency:   ZDIPLEN    1  0.021500

@ Value of linear response -<<A;B>>(omega):      90.069575536504


  Results from quadratic response calculation
 --------------------------------------------

@ B-freq = 0.000000  C-freq = 0.000000     beta(X;X,X) =   5285.08276281
@ B-freq = 0.000000  C-freq = 0.000000     beta(Y;X,X) =   5506.36497642
@ B-freq = 0.000000  C-freq = 0.000000     beta(Z;X,X) =     -0.00000000
@ B-freq = 0.021500  C-freq = 0.000000     beta(X;X,X) =   5674.49461047
@ B-freq = 0.021500  C-freq = 0.000000     beta(Y;X,X) =   5815.85517014
@ B-freq = 0.021500  C-freq = 0.000000     beta(Z;X,X) =     -0.00000000
@ B-freq = 0.000000  C-freq = 0.000000     beta(X;Y,X) = beta(Y,X,X)
@ B-freq = 0.000000  C-freq = 0.000000     beta(X;Y,X) =   5506.36376040
@ B-freq = 0.000000  C-freq = 0.000000     beta(Y;Y,X) =   4860.16817744
@ B-freq = 0.000000  C-freq = 0.000000     beta(Z;Y,X) =     -0.00000000
@ B-freq = 0.021500  C-freq = 0.000000     beta(X;Y,X) =   5815.85388563
@ B-freq = 0.021500  C-freq = 0.000000     beta(Y;Y,X) =   5092.28177583
@ B-freq = 0.021500  C-freq = 0.000000     beta(Z;Y,X) =     -0.00000000
@ B-freq = 0.000000  C-freq = 0.000000     beta(X;Z,X) = beta(Z,X,X)
@ B-freq = 0.000000  C-freq = 0.000000     beta(Y;Z,X) = beta(Z,Y,X)
@ B-freq = 0.000000  C-freq = 0.000000     beta(X;Z,X) =     -0.00000000
@ B-freq = 0.000000  C-freq = 0.000000     beta(Y;Z,X) =     -0.00000000
@ B-freq = 0.000000  C-freq = 0.000000     beta(Z;Z,X) =    -33.25628139
@ B-freq = 0.021500  C-freq = 0.000000     beta(X;Z,X) =     -0.00000000
@ B-freq = 0.021500  C-freq = 0.000000     beta(Y;Z,X) =     -0.00000000
@ B-freq = 0.021500  C-freq = 0.000000     beta(Z;Z,X) =    -33.92445594
@ B-freq = 0.000000  C-freq = 0.021500     beta(X;X,X) = beta(X,X,X)
@ B-freq = 0.000000  C-freq = 0.021500     beta(Y;X,X) = beta(Y,X,X)
@ B-freq = 0.000000  C-freq = 0.021500     beta(Z;X,X) = beta(Z,X,X)
@ B-freq = 0.021500  C-freq = 0.021500     beta(X;X,X) =   6573.99907934
@ B-freq = 0.021500  C-freq = 0.021500     beta(Y;X,X) =   6446.31212547
@ B-freq = 0.021500  C-freq = 0.021500     beta(Z;X,X) =     -0.00000000
@ B-freq = 0.000000  C-freq = 0.021500     beta(X;Y,X) =   5881.44195462
@ B-freq = 0.000000  C-freq = 0.021500     beta(Y;Y,X) =   5135.56305276
@ B-freq = 0.000000  C-freq = 0.021500     beta(Z;Y,X) =     -0.00000000
@ B-freq = 0.021500  C-freq = 0.021500     beta(X;Y,X) =   6670.82787759
@ B-freq = 0.021500  C-freq = 0.021500     beta(Y;Y,X) =   5665.34498223
@ B-freq = 0.021500  C-freq = 0.021500     beta(Z;Y,X) =     -0.00000000
@ B-freq = 0.000000  C-freq = 0.021500     beta(X;Z,X) =     -0.00000000
@ B-freq = 0.000000  C-freq = 0.021500     beta(Y;Z,X) =     -0.00000000
@ B-freq = 0.000000  C-freq = 0.021500     beta(Z;Z,X) =    -34.18436311
@ B-freq = 0.021500  C-freq = 0.021500     beta(X;Z,X) =     -0.00000000
@ B-freq = 0.021500  C-freq = 0.021500     beta(Y;Z,X) =     -0.00000000
@ B-freq = 0.021500  C-freq = 0.021500     beta(Z;Z,X) =    -35.60129779
@ B-freq = 0.000000  C-freq = 0.000000     beta(X;X,Y) = beta(Y,X,X)
@ B-freq = 0.000000  C-freq = 0.000000     beta(Y;X,Y) = beta(Y,Y,X)
@ B-freq = 0.000000  C-freq = 0.000000     beta(Z;X,Y) = beta(Z,Y,X)
@ B-freq = 0.021500  C-freq = 0.000000     beta(X;X,Y) = beta(X,Y,X)
@ B-freq = 0.021500  C-freq = 0.000000     beta(Y;X,Y) = beta(Y,Y,X)
@ B-freq = 0.021500  C-freq = 0.000000     beta(Z;X,Y) = beta(Z,Y,X)
@ B-freq = 0.000000  C-freq = 0.000000     beta(X;Y,Y) = beta(Y,Y,X)
@ B-freq = 0.000000  C-freq = 0.000000     beta(X;Y,Y) =   4860.16746447
@ B-freq = 0.000000  C-freq = 0.000000     beta(Y;Y,Y) =   3877.91375285
@ B-freq = 0.000000  C-freq = 0.000000     beta(Z;Y,Y) =     -0.00000000
@ B-freq = 0.021500  C-freq = 0.000000     beta(X;Y,Y) =   5135.56230026
@ B-freq = 0.021500  C-freq = 0.000000     beta(Y;Y,Y) =   4073.64484770
@ B-freq = 0.021500  C-freq = 0.000000     beta(Z;Y,Y) =     -0.00000000
@ B-freq = 0.000000  C-freq = 0.000000     beta(X;Z,Y) = beta(Z,Y,X)
@ B-freq = 0.000000  C-freq = 0.000000     beta(Y;Z,Y) = beta(Z,Y,Y)
@ B-freq = 0.000000  C-freq = 0.000000     beta(X;Z,Y) =     -0.00000000
@ B-freq = 0.000000  C-freq = 0.000000     beta(Y;Z,Y) =     -0.00000000
@ B-freq = 0.000000  C-freq = 0.000000     beta(Z;Z,Y) =    -27.78575242
@ B-freq = 0.021500  C-freq = 0.000000     beta(X;Z,Y) =     -0.00000000
@ B-freq = 0.021500  C-freq = 0.000000     beta(Y;Z,Y) =     -0.00000000
@ B-freq = 0.021500  C-freq = 0.000000     beta(Z;Z,Y) =    -28.23251986
@ B-freq = 0.000000  C-freq = 0.021500     beta(X;X,Y) = beta(X,Y,X)
@ B-freq = 0.000000  C-freq = 0.021500     beta(Y;X,Y) = beta(Y,Y,X)
@ B-freq = 0.000000  C-freq = 0.021500     beta(Z;X,Y) = beta(Z,Y,X)
@ B-freq = 0.021500  C-freq = 0.021500     beta(X;X,Y) = beta(X,Y,X)
@ B-freq = 0.021500  C-freq = 0.021500     beta(Y;X,Y) = beta(Y,Y,X)
@ B-freq = 0.021500  C-freq = 0.021500     beta(Z;X,Y) = beta(Z,Y,X)
@ B-freq = 0.000000  C-freq = 0.021500     beta(X;Y,Y) = beta(X,Y,Y)
@ B-freq = 0.000000  C-freq = 0.021500     beta(Y;Y,Y) = beta(Y,Y,Y)
@ B-freq = 0.000000  C-freq = 0.021500     beta(Z;Y,Y) = beta(Z,Y,Y)
@ B-freq = 0.021500  C-freq = 0.021500     beta(X;Y,Y) =   5813.71203980
@ B-freq = 0.021500  C-freq = 0.021500     beta(Y;Y,Y) =   4517.06545221
@ B-freq = 0.021500  C-freq = 0.021500     beta(Z;Y,Y) =     -0.00000000
@ B-freq = 0.000000  C-freq = 0.021500     beta(X;Z,Y) =     -0.00000000
@ B-freq = 0.000000  C-freq = 0.021500     beta(Y;Z,Y) =     -0.00000000
@ B-freq = 0.000000  C-freq = 0.021500     beta(Z;Z,Y) =    -28.36981433
@ B-freq = 0.021500  C-freq = 0.021500     beta(X;Z,Y) =     -0.00000000
@ B-freq = 0.021500  C-freq = 0.021500     beta(Y;Z,Y) =     -0.00000000
@ B-freq = 0.021500  C-freq = 0.021500     beta(Z;Z,Y) =    -29.31174595
@ B-freq = 0.000000  C-freq = 0.000000     beta(X;X,Z) = beta(Z,X,X)
@ B-freq = 0.000000  C-freq = 0.000000     beta(Y;X,Z) = beta(Z,Y,X)
@ B-freq = 0.000000  C-freq = 0.000000     beta(Z;X,Z) = beta(Z,Z,X)
@ B-freq = 0.021500  C-freq = 0.000000     beta(X;X,Z) = beta(X,Z,X)
@ B-freq = 0.021500  C-freq = 0.000000     beta(Y;X,Z) = beta(Y,Z,X)
@ B-freq = 0.021500  C-freq = 0.000000     beta(Z;X,Z) = beta(Z,Z,X)
@ B-freq = 0.000000  C-freq = 0.000000     beta(X;Y,Z) = beta(Z,Y,X)
@ B-freq = 0.000000  C-freq = 0.000000     beta(Y;Y,Z) = beta(Z,Y,Y)
@ B-freq = 0.000000  C-freq = 0.000000     beta(Z;Y,Z) = beta(Z,Z,Y)
@ B-freq = 0.021500  C-freq = 0.000000     beta(X;Y,Z) = beta(X,Z,Y)
@ B-freq = 0.021500  C-freq = 0.000000     beta(Y;Y,Z) = beta(Y,Z,Y)
@ B-freq = 0.021500  C-freq = 0.000000     beta(Z;Y,Z) = beta(Z,Z,Y)
@ B-freq = 0.000000  C-freq = 0.000000     beta(X;Z,Z) = beta(Z,Z,X)
@ B-freq = 0.000000  C-freq = 0.000000     beta(Y;Z,Z) = beta(Z,Z,Y)
@ B-freq = 0.000000  C-freq = 0.000000     beta(X;Z,Z) =    -33.25627585
@ B-freq = 0.000000  C-freq = 0.000000     beta(Y;Z,Z) =    -27.78574224
@ B-freq = 0.000000  C-freq = 0.000000     beta(Z;Z,Z) =     -0.00000000
@ B-freq = 0.021500  C-freq = 0.000000     beta(X;Z,Z) =    -34.18435693
@ B-freq = 0.021500  C-freq = 0.000000     beta(Y;Z,Z) =    -28.36980367
@ B-freq = 0.021500  C-freq = 0.000000     beta(Z;Z,Z) =     -0.00000000
@ B-freq = 0.000000  C-freq = 0.021500     beta(X;X,Z) = beta(X,Z,X)
@ B-freq = 0.000000  C-freq = 0.021500     beta(Y;X,Z) = beta(Y,Z,X)
@ B-freq = 0.000000  C-freq = 0.021500     beta(Z;X,Z) = beta(Z,Z,X)
@ B-freq = 0.021500  C-freq = 0.021500     beta(X;X,Z) = beta(X,Z,X)
@ B-freq = 0.021500  C-freq = 0.021500     beta(Y;X,Z) = beta(Y,Z,X)
@ B-freq = 0.021500  C-freq = 0.021500     beta(Z;X,Z) = beta(Z,Z,X)
@ B-freq = 0.000000  C-freq = 0.021500     beta(X;Y,Z) = beta(X,Z,Y)
@ B-freq = 0.000000  C-freq = 0.021500     beta(Y;Y,Z) = beta(Y,Z,Y)
@ B-freq = 0.000000  C-freq = 0.021500     beta(Z;Y,Z) = beta(Z,Z,Y)
@ B-freq = 0.021500  C-freq = 0.021500     beta(X;Y,Z) = beta(X,Z,Y)
@ B-freq = 0.021500  C-freq = 0.021500     beta(Y;Y,Z) = beta(Y,Z,Y)
@ B-freq = 0.021500  C-freq = 0.021500     beta(Z;Y,Z) = beta(Z,Z,Y)
@ B-freq = 0.000000  C-freq = 0.021500     beta(X;Z,Z) = beta(X,Z,Z)
@ B-freq = 0.000000  C-freq = 0.021500     beta(Y;Z,Z) = beta(Y,Z,Z)
@ B-freq = 0.000000  C-freq = 0.021500     beta(Z;Z,Z) = beta(Z,Z,Z)
@ B-freq = 0.021500  C-freq = 0.021500     beta(X;Z,Z) =    -36.53108293
@ B-freq = 0.021500  C-freq = 0.021500     beta(Y;Z,Z) =    -29.80809986
@ B-freq = 0.021500  C-freq = 0.021500     beta(Z;Z,Z) =     -0.00000000

  Total CPU  time used in RESPONSE:   2 hours 24 minutes 45 seconds
  Total wall time used in RESPONSE:   2 hours 25 minutes 24 seconds


                   .-------------------------------------------.
                   | End of Dynamic Property Section (RESPONS) |
                   `-------------------------------------------'

  Total CPU  time used in DALTON:   3 hours  0 minutes 14 seconds
  Total wall time used in DALTON:   3 hours  1 minute   4 seconds

 
     Date and time (Linux)  : Mon May 12 22:13:04 2025
     Host name              : xm047                                   
