

     ************************************************************************
     *************** Dalton - An Electronic Structure Program ***************
     ************************************************************************

    This is output from DALTON release Dalton2020.0 (2020)
         ( Web site: http://daltonprogram.org )

   ----------------------------------------------------------------------------

    NOTE:
     
    Dalton is an experimental code for the evaluation of molecular
    properties using (MC)SCF, DFT, CI, and CC wave functions.
    The authors accept no responsibility for the performance of
    the code or for the correctness of the results.
     
    The code (in whole or part) is provided under a licence and
    is not to be reproduced for further distribution without
    the written permission of the authors or their representatives.
     
    See the home page "http://daltonprogram.org" for further information.
     
    If results obtained with this code are published,
    the appropriate citations would be both of:
     
       K. Aidas, C. Angeli, K. L. Bak, V. Bakken, R. Bast,
       L. Boman, O. Christiansen, R. Cimiraglia, S. Coriani,
       P. Dahle, E. K. Dalskov, U. Ekstroem,
       T. Enevoldsen, J. J. Eriksen, P. Ettenhuber, B. Fernandez,
       L. Ferrighi, H. Fliegl, L. Frediani, K. Hald, A. Halkier,
       C. Haettig, H. Heiberg, T. Helgaker, A. C. Hennum,
       H. Hettema, E. Hjertenaes, S. Hoest, I.-M. Hoeyvik,
       M. F. Iozzi, B. Jansik, H. J. Aa. Jensen, D. Jonsson,
       P. Joergensen, J. Kauczor, S. Kirpekar,
       T. Kjaergaard, W. Klopper, S. Knecht, R. Kobayashi, H. Koch,
       J. Kongsted, A. Krapp, K. Kristensen, A. Ligabue,
       O. B. Lutnaes, J. I. Melo, K. V. Mikkelsen, R. H. Myhre,
       C. Neiss, C. B. Nielsen, P. Norman, J. Olsen,
       J. M. H. Olsen, A. Osted, M. J. Packer, F. Pawlowski,
       T. B. Pedersen, P. F. Provasi, S. Reine, Z. Rinkevicius,
       T. A. Ruden, K. Ruud, V. Rybkin, P. Salek, C. C. M. Samson,
       A. Sanchez de Meras, T. Saue, S. P. A. Sauer,
       B. Schimmelpfennig, K. Sneskov, A. H. Steindal,
       K. O. Sylvester-Hvid, P. R. Taylor, A. M. Teale,
       E. I. Tellgren, D. P. Tew, A. J. Thorvaldsen, L. Thoegersen,
       O. Vahtras, M. A. Watson, D. J. D. Wilson, M. Ziolkowski
       and H. Agren,
       "The Dalton quantum chemistry program system",
       WIREs Comput. Mol. Sci. 2014, 4:269–284 (doi: 10.1002/wcms.1172)
     
    and
     
       Dalton, a molecular electronic structure program,
       Release Dalton2020.0 (2020), see http://daltonprogram.org
   ----------------------------------------------------------------------------

    Authors in alphabetical order (Major contribution(s) in parenthesis):

  Kestutis Aidas,           Vilnius University,           Lithuania   (QM/MM)
  Celestino Angeli,         University of Ferrara,        Italy       (NEVPT2)
  Keld L. Bak,              UNI-C,                        Denmark     (AOSOPPA, non-adiabatic coupling, magnetic properties)
  Vebjoern Bakken,          University of Oslo,           Norway      (DALTON; geometry optimizer, symmetry detection)
  Radovan Bast,             UiT The Arctic U. of Norway,  Norway      (DALTON installation and execution frameworks)
  Pablo Baudin,             University of Valencia,       Spain       (Cholesky excitation energies)
  Linus Boman,              NTNU,                         Norway      (Cholesky decomposition and subsystems)
  Bruno N. Cabral Tenorio,  Technical Univ. of Denmark,   Denmark     (Lanczos-based CC methods)
  Ove Christiansen,         Aarhus University,            Denmark     (CC module)
  Renzo Cimiraglia,         University of Ferrara,        Italy       (NEVPT2)
  Sonia Coriani,            Technical Univ. of Denmark,   Denmark     (CC and RESPONS modules)
  Janusz Cukras,            University of Warsaw,         Poland      (MChD in RESPONS)
  Paal Dahle,               University of Oslo,           Norway      (Parallelization)
  Erik K. Dalskov,          UNI-C,                        Denmark     (SOPPA)
  Thomas Enevoldsen,        Univ. of Southern Denmark,    Denmark     (SOPPA)
  Janus J. Eriksen,         Aarhus University,            Denmark     (Polarizable embedding, TDA)
  Rasmus Faber,             Technical Univ. of Denmark,   Denmark     (Vib.avg. NMR w. SOPPA, parallel AO-SOPPA, CVS-CC and EOMCC)
  Tobias Fahleson,          KTH Stockholm,                Sweden      (Damped cubic response)
  Berta Fernandez,          U. of Santiago de Compostela, Spain       (Doublet spin, ESR in RESPONS)
  Lara Ferrighi,            Aarhus University,            Denmark     (PCM Cubic response)
  Heike Fliegl,             University of Oslo,           Norway      (CCSD(R12))
  Luca Frediani,            UiT The Arctic U. of Norway,  Norway      (PCM)
  Emmanuel Fromager,        Univ. Strasbourg,             France      (MC-srDFT)
  Bin Gao,                  UiT The Arctic U. of Norway,  Norway      (Gen1Int library)
  Andre S. P. Gomes,        CNRS/Universite de Lille,     France      (Frozen density embedding)
  Christof Haettig,         Ruhr-University Bochum,       Germany     (CC module)
  Kasper Hald,              Aarhus University,            Denmark     (CC module)
  Asger Halkier,            Aarhus University,            Denmark     (CC module)
  Frederik Beyer Hansen,    University of Copenhagen,     Denmark     (Parallel AO-SOPPA)
  Erik D. Hedegaard,        Univ. of Southern Denmark,    Denmark     (Polarizable embedding, QM/MM, and MC-srDFT)
  Hanne Heiberg,            University of Oslo,           Norway      (Geometry analysis, selected one-electron integrals)
  Trygve Helgaker,          University of Oslo,           Norway      (DALTON; ABACUS, ERI, DFT modules, London, and much more)
  Alf Christian Hennum,     University of Oslo,           Norway      (Parity violation)
  Hinne Hettema,            University of Auckland,       New Zealand (Quadratic response in RESPONS; SIRIUS supersymmetry)
  Eirik Hjertenaes,         NTNU,                         Norway      (Cholesky decomposition)
  Pi A. B. Haase,           University of Copenhagen,     Denmark     (Triplet AO-SOPPA)
  Maria Francesca Iozzi,    University of Oslo,           Norway      (RPA)
  Christoph Jacob           TU Braunschweig               Germany     (Frozen density embedding)
  Brano Jansik              Technical Univ. of Ostrava    Czech Rep.  (DFT cubic response)
  Hans Joergen Aa. Jensen,  Univ. of Southern Denmark,    Denmark     (DALTON; SIRIUS, RESPONS, ABACUS, MC-srDFT, and much more)
  Dan Jonsson,              UiT The Arctic U. of Norway,  Norway      (Cubic response in RESPONS module)
  Poul Joergensen,          Aarhus University,            Denmark     (RESPONS, ABACUS, and CC modules)
  Maciej Kaminski,          University of Warsaw,         Poland      (CPPh in RESPONS)
  Joanna Kauczor,           Linkoeping University,        Sweden      (Complex polarization propagator (CPP) module)
  Sheela Kirpekar,          Univ. of Southern Denmark,    Denmark     (Mass-velocity & Darwin integrals)
  Erik Kjellgren,           Univ. of Southern Denmark,    Denmark     (MC-srDFT)
  Wim Klopper,              KIT Karlsruhe,                Germany     (R12 code in CC, SIRIUS, and ABACUS modules)
  Stefan Knecht,            ETH Zurich,                   Switzerland (Parallel CI and MCSCF, MC-srDFT)
  Rika Kobayashi,           Australian National Univ.,    Australia   (DIIS in CC, London in MCSCF)
  Henrik Koch,              NTNU,                         Norway      (CC module, Cholesky decomposition)
  Jacob Kongsted,           Univ. of Southern Denmark,    Denmark     (Polarizable embedding, polarizable density embedding, QM/MM)
  Andrea Ligabue,           University of Modena,         Italy       (CTOCD, AOSOPPA)
  Nanna H. List             Univ. of Southern Denmark,    Denmark     (Polarizable embedding)
  Ola B. Lutnaes,           University of Oslo,           Norway      (DFT Hessian)
  Juan I. Melo,             University of Buenos Aires,   Argentina   (LRESC, Relativistic Effects on NMR Shieldings)
  Kurt V. Mikkelsen,        University of Copenhagen,     Denmark     (MC-SCRF and QM/MM)
  Rolf H. Myhre,            NTNU,                         Norway      (Subsystems and CC3)
  Christian Neiss,          Univ. Erlangen-Nuernberg,     Germany     (CCSD(R12))
  Christian B. Nielsen,     University of Copenhagen,     Denmark     (QM/MM)
  Patrick Norman,           KTH Stockholm,                Sweden      (Cubic response and complex frequency response in RESPONS)
  Jeppe Olsen,              Aarhus University,            Denmark     (SIRIUS CI/density modules)
  Jogvan Magnus H. Olsen,   Aarhus University,            Denmark     (Polarizable embedding and polarizable density embedding)
  Anders Osted,             Copenhagen University,        Denmark     (QM/MM)
  Martin J. Packer,         University of Sheffield,      UK          (SOPPA)
  Filip Pawlowski,          Kazimierz Wielki University,  Poland      (CC3)
  Morten N. Pedersen,       Univ. of Southern Denmark,    Denmark     (Polarizable embedding)
  Thomas B. Pedersen,       University of Oslo,           Norway      (Cholesky decomposition)
  Patricio F. Provasi,      University of Northeastern,   Argentina   (Analysis of coupling constants in localized orbitals)
  Peter Reinholdt,          Univ. of Southern Denmark,    Denmark     (Polarizable embedding and polarizable density embedding)
  Zilvinas Rinkevicius,     KTH Stockholm,                Sweden      (open-shell DFT, ESR)
  Elias Rudberg,            KTH Stockholm,                Sweden      (DFT grid and basis info)
  Torgeir A. Ruden,         University of Oslo,           Norway      (Numerical derivatives in ABACUS)
  Kenneth Ruud,             UiT The Arctic U. of Norway,  Norway      (DALTON; ABACUS magnetic properties and much more)
  Pawel Salek,              KTH Stockholm,                Sweden      (DALTON; DFT code)
  Claire C. M. Samson       University of Karlsruhe       Germany     (Boys localization, r12 integrals in ERI)
  Alfredo Sanchez de Meras, University of Valencia,       Spain       (CC module, Cholesky decomposition)
  Trond Saue,               Paul Sabatier University,     France      (direct Fock matrix construction)
  Stephan P. A. Sauer,      University of Copenhagen,     Denmark     (SOPPA(CCSD), SOPPA prop., AOSOPPA, vibrational g-factors)
  Bernd Schimmelpfennig,    Forschungszentrum Karlsruhe,  Germany     (AMFI module)
  Anna K. Schnack-Petersen, University of Copenhagen,     Denmark     (RPA(D) and HRPA(D) properties in AOSOPPA)
  Kristian Sneskov,         Aarhus University,            Denmark     (Polarizable embedding, QM/MM)
  Arnfinn H. Steindal,      UiT The Arctic U. of Norway,  Norway      (parallel QM/MM, polarizable embedding)
  Casper Steinmann,         Aalborg University,           Denmark     (QFIT, polarizable embedding)
  K. O. Sylvester-Hvid,     University of Copenhagen,     Denmark     (MC-SCRF)
  Peter R. Taylor,          VLSCI/Univ. of Melbourne,     Australia   (Symmetry handling ABACUS, integral transformation)
  Andrew M. Teale,          University of Nottingham,     England     (DFT-AC, DFT-D)
  David P. Tew,             University of Bristol,        England     (CCSD(R12))
  Julien Toulouse,          Sorbonne Univ.,               France      (MC-srDFT)
  Olav Vahtras,             KTH Stockholm,                Sweden      (Triplet response, spin-orbit, ESR, TDDFT, open-shell DFT)
  Lucas Visscher,           Vrije Universiteit Amsterdam, Netherlands (Frozen density embedding)
  David J. Wilson,          La Trobe University,          Australia   (DFT Hessian and DFT magnetizabilities)
  Hans Agren,               KTH Stockholm,                Sweden      (SIRIUS module, RESPONS, MC-SCRF solvation)
 --------------------------------------------------------------------------------

     Date and time (Linux)  : Fri May  9 17:59:37 2025
     Host name              : xm046                                   

 * Work memory size             :  1310720000 =  9.766 gigabytes.

 * Directories for basis set searches:
   1) /gpfs/projects/rjh/adrian/summer2025/beta_projects/raw_data/NLO/dalton/hf/n5/dipole
   2) /gpfs/projects/rjh/adrian/dalton/build/basis


Compilation information
-----------------------

 Who compiled             | ahurtado
 Host                     | milan2
 System                   | Linux-5.14.0-427.42.1.el9_4.x86_64
 CMake generator          | Unix Makefiles
 Processor                | x86_64
 64-bit integers          | OFF
 MPI                      | ON
 Fortran compiler         | /gpfs/software/openmpi/milan/gcc13.2/4.1.6/bin/mpi
                          | f90
 Fortran compiler version | GNU Fortran (GCC) 13.2.0
 C compiler               | /gpfs/software/openmpi/milan/gcc13.2/4.1.6/bin/mpi
                          | cc
 C compiler version       | gcc (GCC) 13.2.0
 C++ compiler             | /gpfs/software/openmpi/milan/gcc13.2/4.1.6/bin/mpi
                          | cxx
 C++ compiler version     | unknown
 BLAS                     | /gpfs/software/intel/oneAPI/2024_2/mkl/2024.2/lib/
                          | intel64/libmkl_gf_lp64.so;/gpfs/software/intel/one
                          | API/2024_2/mkl/2024.2/lib/intel64/libmkl_sequentia
                          | l.so;/gpfs/software/intel/oneAPI/2024_2/mkl/2024.2
                          | /lib/intel64/libmkl_core.so;/usr/lib64/libpthread.
                          | a;/usr/lib64/libm.so
 LAPACK                   | /gpfs/software/intel/oneAPI/2024_2/mkl/2024.2/lib/
                          | intel64/libmkl_lapack95_lp64.a;/gpfs/software/inte
                          | l/oneAPI/2024_2/mkl/2024.2/lib/intel64/libmkl_gf_l
                          | p64.so
 Static linking           | OFF
 Last Git revision        | 66052b3af5ea7225e31178bf9a8b031913c72190
 Git branch               | (HEAD detached at Dalton2020.0)
 Configuration time       | 2025-04-10 16:02:31.569498

 * MPI parallel run using 96 processes.


   Content of the .dal input file
 ----------------------------------

**DALTON INPUT
.RUN RESPONSE
.DIRECT
**WAVE FUNCTIONS
.HF
**PROPERTIES
**RESPONSE
*QUADRA
.DIPLEN
.FREQUENCIES
2
0.0 0.0215
**END OF DALTON INPUT


   Content of the .mol file
 ----------------------------

BASIS
aug-cc-pVQZ
blah
blah
Atomtype=4 Angstrom Charge=0 Nosymmetry
Charge=6 Atoms=10
C_a 5.536066998843778 3.466402999753725 0.0
C_b 4.166369001271292 3.4392500015976735 0.0
C_c 3.4276169984318443 2.20278399812645 0.0
C_d 2.058811997985908 2.096950000646235 0.0
C_e 1.365670001188536 0.8343780025891309 0.0
C_f 0.0 0.6914970018120553 0.0
C_g -0.6598629998290869 -0.5899810004107818 0.0
C_h -2.019472001042177 -0.7625100010991812 0.0
C_i -2.635186000190127 -2.070242998335108 0.0
C_j -3.974355002463877 -2.2666549995239453 0.0
Charge=7 Atoms=2
N_a 6.321381997672225 4.585279000628057 0.0
N_b -4.538794000068139 -3.610130001429271 0.0
Charge=8 Atoms=2
O_a -3.7757759994302575 -4.579172999422615 0.0
O_b -5.7747340013919555 -3.670131997735762 0.0
Charge=1 Atoms=12
H_a 6.093148999149485 2.5210970022683954 0.0
H_b 3.6069480006520194 4.384473997782438 0.0
H_c 5.909042998119462 5.508340002167312 0.0
H_d 7.3272380020916446 4.514706001608058 0.0
H_e 4.014154002428372 1.2707440023448995 0.0
H_f 1.453018002455127 3.0142559989321143 0.0
H_g 1.9828259976520177 -0.07723600157384668 0.0
H_h -0.6296780014679194 1.592591000069318 0.0
H_i -0.02111300122409742 -1.4859380003119211 0.0
H_j -2.6721639987787165 0.12098999792607903 0.0
H_k -1.992137997821215 -2.958866999124197 0.0
H_l -4.7392729980013515 -1.4879950020899213 0.0


       *******************************************************************
       *********** Output from DALTON general input processing ***********
       *******************************************************************

 --------------------------------------------------------------------------------
   Overall default print level:    0
   Print level for DALTON.STAT:    1

    Parallel calculation using MPI
    AO-direct calculation (in sections where implemented)
    HERMIT 1- and 2-electron integral sections will be executed
    "Old" integral transformation used (limited to max 255 basis functions)
    Wave function sections will be executed (SIRIUS module)
    Dynamic molecular response properties section will be executed (RESPONSE module)
 --------------------------------------------------------------------------------


   ****************************************************************************
   *************** Output of molecule and basis set information ***************
   ****************************************************************************


    The two title cards from your ".mol" input:
    ------------------------------------------------------------------------
 1: blah                                                                    
 2: blah                                                                    
    ------------------------------------------------------------------------

  Coordinates are entered in Angstrom and converted to atomic units.
          - Conversion factor : 1 bohr = 0.52917721 A

  Atomic type no.    1
  --------------------
  Nuclear charge:   6.00000
  Number of symmetry independent centers:   10
  Number of basis sets to read;    2
  Basis set file used for this atomic type with Z =   6 :
     "/gpfs/projects/rjh/adrian/dalton/build/basis/aug-cc-pVQZ"

  Atomic type no.    2
  --------------------
  Nuclear charge:   7.00000
  Number of symmetry independent centers:    2
  Number of basis sets to read;    2
  Basis set file used for this atomic type with Z =   7 :
     "/gpfs/projects/rjh/adrian/dalton/build/basis/aug-cc-pVQZ"

  Atomic type no.    3
  --------------------
  Nuclear charge:   8.00000
  Number of symmetry independent centers:    2
  Number of basis sets to read;    2
  Basis set file used for this atomic type with Z =   8 :
     "/gpfs/projects/rjh/adrian/dalton/build/basis/aug-cc-pVQZ"

  Atomic type no.    4
  --------------------
  Nuclear charge:   1.00000
  Number of symmetry independent centers:   12
  Number of basis sets to read;    2
  Basis set file used for this atomic type with Z =   1 :
     "/gpfs/projects/rjh/adrian/dalton/build/basis/aug-cc-pVQZ"


                         SYMGRP: Point group information
                         -------------------------------

@    Point group: C1 


                                 Isotopic Masses
                                 ---------------

                           C_a        12.000000
                           C_b        12.000000
                           C_c        12.000000
                           C_d        12.000000
                           C_e        12.000000
                           C_f        12.000000
                           C_g        12.000000
                           C_h        12.000000
                           C_i        12.000000
                           C_j        12.000000
                           N_a        14.003074
                           N_b        14.003074
                           O_a        15.994915
                           O_b        15.994915
                           H_a         1.007825
                           H_b         1.007825
                           H_c         1.007825
                           H_d         1.007825
                           H_e         1.007825
                           H_f         1.007825
                           H_g         1.007825
                           H_h         1.007825
                           H_i         1.007825
                           H_j         1.007825
                           H_k         1.007825
                           H_l         1.007825

                       Total mass:   192.089878 amu
                       Natural abundance:  88.282 %

 Center-of-mass coordinates (a.u.):   -0.197924   -0.164682    0.000000
 Center-of-mass coordinates (Angs):   -0.104737   -0.087146    0.000000


  Atoms and basis sets
  --------------------

  Number of atom types :    4
  Total number of atoms:   26

  Basis set used is "aug-cc-pVQZ" from the basis set library.

  label    atoms   charge   prim   cont     basis
  ----------------------------------------------------------------------
  C_         10    6.0000    93    80      [13s7p4d3f2g|6s5p4d3f2g]                           
  N_          2    7.0000    93    80      [13s7p4d3f2g|6s5p4d3f2g]                           
  O_          2    8.0000    93    80      [13s7p4d3f2g|6s5p4d3f2g]                           
  H_         12    1.0000    48    46      [7s4p3d2f|5s4p3d2f]                                
  ----------------------------------------------------------------------
  total:     26  102.0000  1878  1672
  ----------------------------------------------------------------------
  Spherical harmonic basis used.

  Threshold for neglecting AO integrals:  1.00D-12

  Max    interatomic separation is   15.4484 Angstrom (   29.1933 Bohr)
  between atoms   18 and   14, "H_d   " and "O_b   ".

  Min HX interatomic separation is    1.0083 Angstrom (    1.9055 Bohr)

  Min YX interatomic separation is    1.2334 Angstrom (    2.3308 Bohr)


  Bond distances (Angstrom):
  --------------------------

                  atom 1     atom 2       distance
                  ------     ------       --------
  bond distance:  C_b        C_a          1.369967
  bond distance:  C_c        C_b          1.440348
  bond distance:  C_d        C_c          1.372890
  bond distance:  C_e        C_d          1.440324
  bond distance:  C_f        C_e          1.373124
  bond distance:  C_g        C_f          1.441390
  bond distance:  C_h        C_g          1.370512
  bond distance:  C_i        C_h          1.445430
  bond distance:  C_j        C_i          1.353496
  bond distance:  N_a        C_a          1.366969
  bond distance:  N_b        C_j          1.457229
  bond distance:  O_a        N_b          1.233386
  bond distance:  O_b        N_b          1.237396
  bond distance:  H_a        C_a          1.097244
  bond distance:  H_b        C_b          1.098363
  bond distance:  H_c        N_a          1.010972
  bond distance:  H_d        N_a          1.008329
  bond distance:  H_e        C_c          1.101238
  bond distance:  H_f        C_d          1.099289
  bond distance:  H_g        C_e          1.100873
  bond distance:  H_h        C_f          1.099302
  bond distance:  H_i        C_g          1.100337
  bond distance:  H_j        C_h          1.098444
  bond distance:  H_k        C_i          1.096888
  bond distance:  H_l        C_j          1.091518


  Bond angles (degrees):
  ----------------------

                  atom 1     atom 2     atom 3         angle
                  ------     ------     ------         -----
  bond angle:     C_b        C_a        N_a          126.200
  bond angle:     C_b        C_a        H_a          119.376
  bond angle:     N_a        C_a        H_a          114.424
  bond angle:     C_a        C_b        C_c          121.993
  bond angle:     C_a        C_b        H_b          119.483
  bond angle:     C_c        C_b        H_b          118.524
  bond angle:     C_b        C_c        C_d          125.278
  bond angle:     C_b        C_c        H_e          116.961
  bond angle:     C_d        C_c        H_e          117.761
  bond angle:     C_c        C_d        C_e          123.188
  bond angle:     C_c        C_d        H_f          119.020
  bond angle:     C_e        C_d        H_f          117.793
  bond angle:     C_d        C_e        C_f          124.739
  bond angle:     C_d        C_e        H_g          117.136
  bond angle:     C_f        C_e        H_g          118.125
  bond angle:     C_e        C_f        C_g          123.218
  bond angle:     C_e        C_f        H_h          118.973
  bond angle:     C_g        C_f        H_h          117.809
  bond angle:     C_f        C_g        C_h          124.477
  bond angle:     C_f        C_g        H_i          117.269
  bond angle:     C_h        C_g        H_i          118.254
  bond angle:     C_g        C_h        C_i          122.444
  bond angle:     C_g        C_h        H_j          119.223
  bond angle:     C_i        C_h        H_j          118.332
  bond angle:     C_h        C_i        C_j          123.556
  bond angle:     C_h        C_i        H_k          118.897
  bond angle:     C_j        C_i        H_k          117.547
  bond angle:     C_i        C_j        N_b          121.133
  bond angle:     C_i        C_j        H_l          126.146
  bond angle:     N_b        C_j        H_l          112.721
  bond angle:     C_a        N_a        H_c          120.865
  bond angle:     C_a        N_a        H_d          121.051
  bond angle:     H_c        N_a        H_d          118.084
  bond angle:     C_j        N_b        O_a          118.994
  bond angle:     C_j        N_b        O_b          115.568
  bond angle:     O_a        N_b        O_b          125.437




 Principal moments of inertia (u*A**2) and principal axes
 --------------------------------------------------------

   IA      79.412402          0.801134    0.598486    0.000000
   IB    4506.972239         -0.598486    0.801134    0.000000
   IC    4586.384642          0.000000    0.000000    1.000000


 Rotational constants
 --------------------

@    The molecule is planar.

               A                   B                   C

           6363.9808            112.1327            110.1912 MHz
            0.212280            0.003740            0.003676 cm-1


@  Nuclear repulsion energy :  704.495638200713 Hartree


                     .---------------------------------------.
                     | Starting in Integral Section (HERMIT) |
                     `---------------------------------------'



 ***************************************************************************************
 ****************** Output from **INTEGRALS input processing (HERMIT) ******************
 ***************************************************************************************


 - Using defaults, no **INTEGRALS input found

 Default print level:        1

 Calculation of one-electron Hamiltonian integrals.

 Center of mass  (bohr):     -0.197923758795     -0.164681770665      0.000000000000
 Operator center (bohr):      0.000000000000      0.000000000000      0.000000000000
 Gauge origin    (bohr):      0.000000000000      0.000000000000      0.000000000000
 Dipole origin   (bohr):      0.000000000000      0.000000000000      0.000000000000


     ************************************************************************
     ************************** Output from HERINT **************************
     ************************************************************************



                      Nuclear contribution to dipole moments
                      --------------------------------------

                 au               Debye          C m (/(10**-30)

      x     -0.00000010        -0.00000025        -0.00000085
      y      0.00000576         0.00001464         0.00004884
      z      0.00000000         0.00000000         0.00000000


  Time used in ONEDRV     is       3.97 seconds
  Time used in HUCKEL     is       1.02 seconds
  Time used in OVERLAP    is       0.57 seconds
  Time used in POPOVLP    is       1.11 seconds
  Time used in R2         is       0.71 seconds
  Time used in R4         is       0.87 seconds
  Time used in DIPLEN     is       1.14 seconds
  Time used in QUADRUP    is       2.34 seconds
  Time used in KINENE     is       0.93 seconds
  Time used in GABGEN     is      14.46 seconds
  Total CPU  time used in HERMIT:  27.13 seconds
  Total wall time used in HERMIT:  27.36 seconds


                        .----------------------------------.
                        | End of Integral Section (HERMIT) |
                        `----------------------------------'



                   .--------------------------------------------.
                   | Starting in Wave Function Section (SIRIUS) |
                   `--------------------------------------------'



@ Primary orbitals are deleted during canonical orthonormalization
@   because of detected numerical linear dependence or too large coefficients.
@ Eigenvalue threshold for num. lin. dep. =  1.00D-06

@  13 MO components are deleted in symmetry    1
 Overlap eigenvalues of the deleted orbitals:
  9.41D-07  8.31D-07  7.97D-07  7.22D-07  6.78D-07
  5.52D-07  5.32D-07  3.92D-07  3.45D-07  3.15D-07
  2.95D-07  2.52D-07  1.14D-07

 Max MO coeff. of last deleted MO & limit:  3.44D+02  1.00D+03

WARNING: Orbitals have been deleted because of numerical
   linear dependence although not requested in input.

 *** Output from Huckel module :

     Using EWMO model:          T
     Using EHT  model:          F
     Number of Huckel orbitals each symmetry:   82

 EWMO - Energy Weighted Maximum Overlap - is a Huckel type method,
        which normally is better than Extended Huckel Theory.
 Reference: Linderberg and Ohrn, Propagators in Quantum Chemistry (Wiley, 1973)

 Huckel EWMO eigenvalues for symmetry :  1
          -20.684752     -20.683486     -15.677076     -15.674980     -11.359150
          -11.359082     -11.357769     -11.355196     -11.352150     -11.348123
          -11.346555     -11.345641     -11.345362     -11.345302      -1.964108
           -1.790031      -1.759034      -1.671445      -1.525369      -1.443608
           -1.340444      -1.181714      -1.160221      -1.085520      -0.995412
           -0.953581      -0.870160      -0.851985      -0.834962      -0.764582
           -0.761079      -0.727823      -0.693657      -0.681100      -0.645373
           -0.609220      -0.604855      -0.585238      -0.567776      -0.544141
           -0.521521      -0.520574      -0.505517      -0.494077      -0.484879
           -0.480611      -0.479444      -0.440146      -0.431877      -0.379599
           -0.376175      -0.334309      -0.281433      -0.244876      -0.229171
           -0.219702      -0.204256      -0.201181      -0.196150      -0.190466
           -0.166430      -0.142758      -0.138473      -0.131883      -0.129974
           -0.129105      -0.128790      -0.128093      -0.126029      -0.125571
           -0.124564      -0.123333      -0.109572      -0.106318      -0.100422
           -0.095501      -0.091917      -0.088850      -0.086677      -0.085099
           -0.082161      -0.079656

 **********************************************************************
 *SIRIUS* a direct, restricted step, second order MCSCF program       *
 **********************************************************************

 
     Date and time (Linux)  : Fri May  9 18:04:09 2025
     Host name              : xm046                                   

 Title lines from ".mol" input file:
     blah                                                                    
     blah                                                                    

 Print level on unit LUPRI =   2 is   0
 Print level on unit LUW4  =   2 is   5

@    Restricted, closed shell Hartree-Fock calculation.

@    Time-dependent Hartree-Fock calculation (random phase approximation).
 Fock matrices are calculated directly and in parallel without use of integrals on disk.

 Initial molecular orbitals are obtained according to
 ".MOSTART EWMO  " input option

     Wave function specification
     ============================
@    Wave function type        --- HF ---
@    Number of closed shell electrons         102
@    Number of electrons in active shells       0
@    Total charge of the molecule               0

@    Spin multiplicity and 2 M_S                1         0
@    Total number of symmetries                 1 (point group: C1 )
@    Reference state symmetry                   1 (irrep name : A  )

     Orbital specifications
     ======================
@    Abelian symmetry species          All |    1
@                                          |  A  
                                       --- |  ---
@    Occupied SCF orbitals              51 |   51
@    Secondary orbitals               1608 | 1608
@    Total number of orbitals         1659 | 1659
@    Number of basis functions        1672 | 1672

     Optimization information
     ========================
@    Number of configurations                 1
@    Number of orbital rotations          82008
     ------------------------------------------
@    Total number of variables            82009

     Maximum number of Fock   iterations      0
     Maximum number of DIIS   iterations     60
     Maximum number of QC-SCF iterations     60
     Threshold for SCF convergence     1.00D-05

    INFORMATION: Switched to "new" integral transformation (from 1988 ;-) )
    because more than 255 basis functions.


 ***********************************************
 ***** DIIS acceleration of SCF iterations *****
 ***********************************************

 C1-DIIS algorithm; max error vectors =    8

 Iter      Total energy        Error norm    Delta(E)  DIIS dim.
 -----------------------------------------------------------------------------
   1  Screening settings (-IFTHRS, JTDIIS, DIFDEN, times)  -10    1    T  3.09D+02  3.12D+02
@  1    -641.729483752        6.67456D+00   -6.42D+02    1
      Virial theorem: -V/T =      2.007509
@    MULPOP   C_a     0.48; C_b    -0.57; C_c    -0.23; C_d    -0.40; C_e    -0.30; C_f    -0.42; C_g    -0.19; C_h    -0.31; C_i    -0.22; C_j     0.04; 
@             N_a    -1.22; N_b     1.85; O_a    -1.67; O_b    -1.73; H_a     0.48; H_b     0.58; H_c     0.43; H_d     0.26; H_e     0.36; H_f     0.40; 
@             H_g     0.31; H_h     0.33; H_i     0.31; H_j     0.44; H_k     0.50; H_l     0.48; 
   1  Level shift: doubly occupied orbital energies shifted by -2.00D-01
 -----------------------------------------------------------------------------
   2  Screening settings (-IFTHRS, JTDIIS, DIFDEN, times)  -10    2    T  3.13D+02  3.13D+02
@  2    -643.920612883        2.89703D+00   -2.19D+00    2
      Virial theorem: -V/T =      2.001365
@    MULPOP   C_a    -0.11; C_b    -0.57; C_c    -0.37; C_d    -0.38; C_e    -0.33; C_f    -0.37; C_g    -0.28; C_h    -0.43; C_i    -0.40; C_j    -0.57; 
@             N_a    -0.92; N_b     0.16; O_a    -0.34; O_b    -0.21; H_a     0.52; H_b     0.49; H_c     0.45; H_d     0.37; H_e     0.39; H_f     0.39; 
@             H_g     0.34; H_h     0.36; H_i     0.35; H_j     0.42; H_k     0.51; H_l     0.55; 
   2  Level shift: doubly occupied orbital energies shifted by -1.00D-01
 -----------------------------------------------------------------------------
   3  Screening settings (-IFTHRS, JTDIIS, DIFDEN, times)  -10    3    T  3.04D+02  3.05D+02
@  3    -644.309195253        8.17868D-01   -3.89D-01    3
      Virial theorem: -V/T =      2.001135
@    MULPOP   C_a    -0.04; C_b    -0.55; C_c    -0.31; C_d    -0.37; C_e    -0.27; C_f    -0.35; C_g    -0.23; C_h    -0.35; C_i    -0.35; C_j    -0.32; 
@             N_a    -0.80; N_b     0.78; O_a    -0.66; O_b    -0.68; H_a     0.47; H_b     0.43; H_c     0.38; H_d     0.29; H_e     0.33; H_f     0.34; 
@             H_g     0.29; H_h     0.30; H_i     0.30; H_j     0.37; H_k     0.47; H_l     0.51; 
   3  Level shift: doubly occupied orbital energies shifted by -5.00D-02
 -----------------------------------------------------------------------------
   4  Screening settings (-IFTHRS, JTDIIS, DIFDEN, times)  -10    4    T  2.97D+02  2.98D+02
@  4    -644.350756740        2.42292D-01   -4.16D-02    4
      Virial theorem: -V/T =      2.003045
@    MULPOP   C_a    -0.02; C_b    -0.53; C_c    -0.27; C_d    -0.32; C_e    -0.21; C_f    -0.31; C_g    -0.18; C_h    -0.33; C_i    -0.31; C_j    -0.42; 
@             N_a    -0.73; N_b     0.65; O_a    -0.61; O_b    -0.57; H_a     0.44; H_b     0.39; H_c     0.34; H_d     0.26; H_e     0.29; H_f     0.32; 
@             H_g     0.25; H_h     0.27; H_i     0.26; H_j     0.35; H_k     0.46; H_l     0.53; 
   4  Level shift: doubly occupied orbital energies shifted by -2.50D-02
 -----------------------------------------------------------------------------
   5  Screening settings (-IFTHRS, JTDIIS, DIFDEN, times)  -14    5    F  3.43D+02  3.44D+02
@  5    -644.358453474        9.71608D-02   -7.70D-03    5
      Virial theorem: -V/T =      2.002408
@    MULPOP   C_a    -0.04; C_b    -0.54; C_c    -0.28; C_d    -0.33; C_e    -0.22; C_f    -0.31; C_g    -0.20; C_h    -0.34; C_i    -0.33; C_j    -0.39; 
@             N_a    -0.73; N_b     0.69; O_a    -0.60; O_b    -0.60; H_a     0.45; H_b     0.39; H_c     0.34; H_d     0.26; H_e     0.30; H_f     0.32; 
@             H_g     0.26; H_h     0.28; H_i     0.27; H_j     0.36; H_k     0.47; H_l     0.53; 
   5  Level shift: doubly occupied orbital energies shifted by -1.25D-02
 -----------------------------------------------------------------------------
   6  Screening settings (-IFTHRS, JTDIIS, DIFDEN, times)  -14    6    T  3.32D+02  3.33D+02
@  6    -644.360383036        4.62504D-02   -1.93D-03    6
      Virial theorem: -V/T =      2.002267
@    MULPOP   C_a    -0.04; C_b    -0.54; C_c    -0.29; C_d    -0.33; C_e    -0.23; C_f    -0.31; C_g    -0.20; C_h    -0.34; C_i    -0.33; C_j    -0.40; 
@             N_a    -0.74; N_b     0.68; O_a    -0.61; O_b    -0.59; H_a     0.45; H_b     0.39; H_c     0.34; H_d     0.26; H_e     0.30; H_f     0.32; 
@             H_g     0.26; H_h     0.28; H_i     0.27; H_j     0.36; H_k     0.47; H_l     0.54; 
 -----------------------------------------------------------------------------
   7  Screening settings (-IFTHRS, JTDIIS, DIFDEN, times)  -14    7    T  3.30D+02  3.30D+02
@  7    -644.360898480        2.22544D-02   -5.15D-04    7
      Virial theorem: -V/T =      2.002314
@    MULPOP   C_a    -0.04; C_b    -0.53; C_c    -0.29; C_d    -0.32; C_e    -0.22; C_f    -0.31; C_g    -0.20; C_h    -0.34; C_i    -0.33; C_j    -0.40; 
@             N_a    -0.74; N_b     0.68; O_a    -0.60; O_b    -0.59; H_a     0.45; H_b     0.39; H_c     0.34; H_d     0.26; H_e     0.30; H_f     0.32; 
@             H_g     0.26; H_h     0.28; H_i     0.27; H_j     0.36; H_k     0.47; H_l     0.54; 
 -----------------------------------------------------------------------------
   8  Screening settings (-IFTHRS, JTDIIS, DIFDEN, times)  -14    8    T  3.26D+02  3.27D+02
@  8    -644.361009922        9.05353D-03   -1.11D-04    8
      Virial theorem: -V/T =      2.002308
@    MULPOP   C_a    -0.04; C_b    -0.53; C_c    -0.29; C_d    -0.32; C_e    -0.23; C_f    -0.31; C_g    -0.20; C_h    -0.34; C_i    -0.33; C_j    -0.40; 
@             N_a    -0.74; N_b     0.68; O_a    -0.60; O_b    -0.59; H_a     0.45; H_b     0.39; H_c     0.34; H_d     0.26; H_e     0.30; H_f     0.32; 
@             H_g     0.26; H_h     0.28; H_i     0.27; H_j     0.36; H_k     0.47; H_l     0.54; 
 -----------------------------------------------------------------------------
   9  Screening settings (-IFTHRS, JTDIIS, DIFDEN, times)  -14    9    T  3.23D+02  3.23D+02
@  9    -644.361026065        3.23450D-03   -1.61D-05    8
      Virial theorem: -V/T =      2.002297
@    MULPOP   C_a    -0.04; C_b    -0.53; C_c    -0.29; C_d    -0.32; C_e    -0.23; C_f    -0.31; C_g    -0.20; C_h    -0.34; C_i    -0.33; C_j    -0.40; 
@             N_a    -0.74; N_b     0.68; O_a    -0.60; O_b    -0.59; H_a     0.45; H_b     0.39; H_c     0.34; H_d     0.26; H_e     0.30; H_f     0.32; 
@             H_g     0.26; H_h     0.28; H_i     0.27; H_j     0.36; H_k     0.47; H_l     0.54; 
 -----------------------------------------------------------------------------
  10  Screening settings (-IFTHRS, JTDIIS, DIFDEN, times)  -14   10    T  3.18D+02  3.19D+02
@ 10    -644.361029081        1.63918D-03   -3.02D-06    8
      Virial theorem: -V/T =      2.002299
@    MULPOP   C_a    -0.04; C_b    -0.53; C_c    -0.29; C_d    -0.32; C_e    -0.23; C_f    -0.31; C_g    -0.20; C_h    -0.34; C_i    -0.33; C_j    -0.40; 
@             N_a    -0.74; N_b     0.68; O_a    -0.60; O_b    -0.59; H_a     0.45; H_b     0.39; H_c     0.34; H_d     0.26; H_e     0.30; H_f     0.32; 
@             H_g     0.26; H_h     0.28; H_i     0.27; H_j     0.36; H_k     0.47; H_l     0.54; 
 -----------------------------------------------------------------------------
  11  Screening settings (-IFTHRS, JTDIIS, DIFDEN, times)  -14   11    T  3.13D+02  3.16D+02
@ 11    -644.361029992        9.62259D-04   -9.10D-07    8
      Virial theorem: -V/T =      2.002300
@    MULPOP   C_a    -0.04; C_b    -0.53; C_c    -0.29; C_d    -0.32; C_e    -0.23; C_f    -0.31; C_g    -0.20; C_h    -0.34; C_i    -0.33; C_j    -0.40; 
@             N_a    -0.74; N_b     0.68; O_a    -0.60; O_b    -0.59; H_a     0.45; H_b     0.39; H_c     0.34; H_d     0.26; H_e     0.30; H_f     0.32; 
@             H_g     0.26; H_h     0.28; H_i     0.27; H_j     0.36; H_k     0.47; H_l     0.54; 
 -----------------------------------------------------------------------------
  12  Screening settings (-IFTHRS, JTDIIS, DIFDEN, times)  -14   12    T  3.13D+02  3.14D+02
@ 12    -644.361030298        3.02332D-04   -3.06D-07    8
      Virial theorem: -V/T =      2.002299
@    MULPOP   C_a    -0.05; C_b    -0.53; C_c    -0.29; C_d    -0.32; C_e    -0.23; C_f    -0.31; C_g    -0.20; C_h    -0.34; C_i    -0.33; C_j    -0.40; 
@             N_a    -0.74; N_b     0.68; O_a    -0.60; O_b    -0.59; H_a     0.45; H_b     0.39; H_c     0.34; H_d     0.26; H_e     0.30; H_f     0.32; 
@             H_g     0.26; H_h     0.28; H_i     0.27; H_j     0.36; H_k     0.47; H_l     0.54; 
 -----------------------------------------------------------------------------
  13  Screening settings (-IFTHRS, JTDIIS, DIFDEN, times)  -14   13    T  3.08D+02  3.09D+02
@ 13    -644.361030331        1.29644D-04   -3.25D-08    8
      Virial theorem: -V/T =      2.002299
@    MULPOP   C_a    -0.05; C_b    -0.53; C_c    -0.29; C_d    -0.32; C_e    -0.23; C_f    -0.31; C_g    -0.20; C_h    -0.34; C_i    -0.33; C_j    -0.40; 
@             N_a    -0.74; N_b     0.68; O_a    -0.60; O_b    -0.59; H_a     0.45; H_b     0.39; H_c     0.34; H_d     0.26; H_e     0.30; H_f     0.32; 
@             H_g     0.26; H_h     0.28; H_i     0.27; H_j     0.36; H_k     0.47; H_l     0.54; 
 -----------------------------------------------------------------------------
  14  Screening settings (-IFTHRS, JTDIIS, DIFDEN, times)  -14   14    T  3.03D+02  3.04D+02
@ 14    -644.361030333        4.08826D-05   -2.57D-09    8
      Virial theorem: -V/T =      2.002299
@    MULPOP   C_a    -0.05; C_b    -0.53; C_c    -0.29; C_d    -0.32; C_e    -0.23; C_f    -0.31; C_g    -0.20; C_h    -0.34; C_i    -0.33; C_j    -0.40; 
@             N_a    -0.74; N_b     0.68; O_a    -0.60; O_b    -0.59; H_a     0.45; H_b     0.39; H_c     0.34; H_d     0.26; H_e     0.30; H_f     0.32; 
@             H_g     0.26; H_h     0.28; H_i     0.27; H_j     0.36; H_k     0.47; H_l     0.54; 
 -----------------------------------------------------------------------------
  15  Screening settings (-IFTHRS, JTDIIS, DIFDEN, times)  -14   15    T  2.98D+02  3.00D+02
@ 15    -644.361030334        1.52885D-05   -3.56D-10    8
      Virial theorem: -V/T =      2.002299
@    MULPOP   C_a    -0.05; C_b    -0.53; C_c    -0.29; C_d    -0.32; C_e    -0.23; C_f    -0.31; C_g    -0.20; C_h    -0.34; C_i    -0.33; C_j    -0.40; 
@             N_a    -0.74; N_b     0.68; O_a    -0.60; O_b    -0.59; H_a     0.45; H_b     0.39; H_c     0.34; H_d     0.26; H_e     0.30; H_f     0.32; 
@             H_g     0.26; H_h     0.28; H_i     0.27; H_j     0.36; H_k     0.47; H_l     0.54; 
 -----------------------------------------------------------------------------
  16  Screening settings (-IFTHRS, JTDIIS, DIFDEN, times)  -14   16    T  2.99D+02  3.01D+02
@ 16    -644.361030334        6.99336D-06   -3.66D-11    8

@ *** DIIS converged in  16 iterations !
@     Converged SCF energy, gradient:   -644.361030333695    6.99D-06
    - total time used in SIRFCK :              0.00 seconds


 *** SCF orbital energy analysis ***

 Only the 20 lowest virtual orbital energies printed in each symmetry.

 Number of electrons :  102
 Orbital occupations :   51

 Sym       Hartree-Fock orbital energies

1 A     -20.57944221   -20.57666003   -15.83102943   -15.60063694   -11.31376457
        -11.28305984   -11.28026779   -11.27273486   -11.26653071   -11.26574415
        -11.24986369   -11.24323702   -11.23781820   -11.23505073    -1.57151051
         -1.36928969    -1.24747289    -1.13648821    -1.11545802    -1.08544283
         -1.04282855    -0.98983631    -0.93533555    -0.86267005    -0.81395124
         -0.78761173    -0.77601612    -0.76954574    -0.73470270    -0.72427784
         -0.70557837    -0.69056646    -0.68916056    -0.65895395    -0.63651601
         -0.61129640    -0.59674274    -0.56507209    -0.55649441    -0.54127725
         -0.53501100    -0.52471821    -0.51226340    -0.48975469    -0.47570522
         -0.47294236    -0.45496856    -0.43447761    -0.40208323    -0.33392895
         -0.25830761     0.00961234     0.01885753     0.02364152     0.02553747
          0.03087045     0.03519720     0.04480117     0.05138689     0.05816853
          0.06081551     0.06821052     0.07066668     0.07127445     0.07258291
          0.07894077     0.08027787     0.08196584     0.08218830     0.08598619
          0.08841107

    E(LUMO) :     0.00961234 au (symmetry 1)
  - E(HOMO) :    -0.25830761 au (symmetry 1)
  ------------------------------------------
    gap     :     0.26791996 au

 --- Writing SIRIFC interface file

 CPU and wall time for SCF :    5570.138    5592.921


                       .-----------------------------------.
                       | --- Final results from SIRIUS --- |
                       `-----------------------------------'


@    Spin multiplicity:           1
@    Spatial symmetry:            1 ( irrep  A   in C1  )
@    Total charge of molecule:    0

@    Final HF energy:            -644.361030333695                 
@    Nuclear repulsion:           704.495638200713
@    Electronic energy:         -1348.856668534408

@    Final gradient norm:           0.000006993363

 
     Date and time (Linux)  : Fri May  9 19:37:31 2025
     Host name              : xm046                                   

File label for MO orbitals:   9May25   FOCKDIIS

 (Only coefficients > 0.0100 are printed.)

 Molecular orbitals for symmetry species 1  (A  )
 ------------------------------------------------

    Orbital        42       43       44       45       46       47       48
   2 C_a :1s    -0.0331  -0.0060  -0.0000   0.0034   0.0004   0.0000  -0.0000
   4 C_a :1s    -0.0099  -0.0174  -0.0000   0.0019   0.0014   0.0000  -0.0000
   5 C_a :1s     0.0906   0.0041   0.0000  -0.0026   0.0016  -0.0000  -0.0000
   6 C_a :1s     0.0017   0.0015  -0.0000  -0.0503   0.0163  -0.0000  -0.0000
   7 C_a :2px    0.1043   0.0160  -0.0000  -0.0059  -0.0006   0.0000   0.0000
   8 C_a :2py   -0.0714  -0.0325   0.0000  -0.0012  -0.0001  -0.0000   0.0000
   9 C_a :2pz    0.0000   0.0000   0.0436  -0.0000  -0.0000  -0.0120   0.0011
  13 C_a :2px    0.0119   0.0208  -0.0000  -0.0005  -0.0003  -0.0000  -0.0000
  16 C_a :2px   -0.0450  -0.0405  -0.0000  -0.0216   0.0064   0.0000  -0.0000
  17 C_a :2py   -0.0209  -0.0046   0.0000   0.0016   0.0052  -0.0000  -0.0000
  20 C_a :2py    0.0033  -0.0025   0.0000  -0.0130   0.0087  -0.0000   0.0000
  32 C_a :3d2-   0.0054   0.0113  -0.0000  -0.0046   0.0023  -0.0000   0.0000
  37 C_a :3d2-   0.0068   0.0154  -0.0000  -0.0007   0.0028   0.0000  -0.0000
  41 C_a :3d2+   0.0132   0.0120   0.0000  -0.0102   0.0049  -0.0000   0.0000
  56 C_a :4f3-  -0.0089  -0.0106  -0.0000   0.0015  -0.0005   0.0000   0.0000
  82 C_b :1s    -0.0362  -0.0594   0.0000  -0.0054  -0.0003  -0.0000  -0.0000
  84 C_b :1s    -0.0130  -0.0197  -0.0000   0.0044   0.0037   0.0000   0.0000
  85 C_b :1s     0.0328  -0.0042  -0.0000   0.0182  -0.0130  -0.0000  -0.0000
  86 C_b :1s     0.0259   0.0392   0.0000   0.0252  -0.0652  -0.0000  -0.0000
  87 C_b :2px   -0.0828   0.0181   0.0000   0.0085   0.0008  -0.0000  -0.0000
  88 C_b :2py    0.2490   0.2131   0.0000   0.0105   0.0006  -0.0000   0.0000
  89 C_b :2pz    0.0000  -0.0000  -0.0410   0.0000   0.0000   0.1679   0.0104
  93 C_b :2px    0.0036   0.0105  -0.0000  -0.0006   0.0004  -0.0000  -0.0000
  94 C_b :2py    0.0099   0.0119   0.0000   0.0004  -0.0022  -0.0000   0.0000
  96 C_b :2px   -0.0731  -0.0672  -0.0000   0.0027  -0.0001   0.0000  -0.0000
  97 C_b :2py    0.0059  -0.0391   0.0000   0.0096  -0.0202  -0.0000  -0.0000
  99 C_b :2px   -0.0107  -0.0011   0.0000   0.0319  -0.0228   0.0000  -0.0000
 100 C_b :2py   -0.0042   0.0017   0.0000   0.0203   0.0050  -0.0000   0.0000
 107 C_b :3d2-  -0.0115  -0.0089  -0.0000  -0.0001   0.0001   0.0000  -0.0000
 112 C_b :3d2-   0.0153   0.0201  -0.0000  -0.0078   0.0029   0.0000   0.0000
 116 C_b :3d2+   0.0178   0.0322   0.0000  -0.0023  -0.0007  -0.0000   0.0000
 117 C_b :3d2-   0.0155   0.0143   0.0000  -0.0082   0.0039   0.0000   0.0000
 118 C_b :3d1-  -0.0000   0.0000  -0.0187   0.0000  -0.0000  -0.0025  -0.0015
 121 C_b :3d2+  -0.0031   0.0129  -0.0000  -0.0097  -0.0038  -0.0000   0.0000
 136 C_b :4f3-  -0.0070  -0.0152  -0.0000   0.0006  -0.0004   0.0000  -0.0000
 162 C_c :1s    -0.0489  -0.0507  -0.0000   0.0049   0.0007   0.0000   0.0000
 164 C_c :1s    -0.0187  -0.0483   0.0000   0.0053  -0.0037  -0.0000  -0.0000
 165 C_c :1s     0.0341  -0.0052   0.0000   0.0271  -0.0007   0.0000   0.0000
 166 C_c :1s    -0.0510   0.0348  -0.0000  -0.1034   0.0919   0.0000   0.0000
 167 C_c :2px    0.1424   0.1042   0.0000  -0.0140  -0.0022  -0.0000   0.0000
 168 C_c :2py   -0.2682  -0.2542  -0.0000  -0.0104  -0.0004   0.0000  -0.0000
 169 C_c :2pz    0.0000  -0.0000  -0.1484   0.0000   0.0000   0.3221   0.0156
 173 C_c :2px   -0.0056   0.0169   0.0000   0.0063  -0.0001  -0.0000   0.0000
 174 C_c :2py   -0.0118  -0.0064  -0.0000   0.0017  -0.0044   0.0000  -0.0000
 176 C_c :2px    0.0382  -0.0462   0.0000  -0.0206  -0.0181  -0.0000   0.0000
 177 C_c :2py   -0.0392  -0.0648  -0.0000  -0.0152  -0.0170   0.0000  -0.0000
 179 C_c :2px    0.0153  -0.0074   0.0000   0.0087   0.0353  -0.0000   0.0000
 180 C_c :2py   -0.0003  -0.0067  -0.0000  -0.0132   0.0244  -0.0000   0.0000
 187 C_c :3d2-  -0.0140  -0.0163  -0.0000  -0.0007   0.0001  -0.0000  -0.0000
 192 C_c :3d2-   0.0232   0.0526  -0.0000  -0.0010  -0.0025   0.0000   0.0000
 195 C_c :3d1+  -0.0000   0.0000  -0.0005   0.0000  -0.0000  -0.0133  -0.0019
 196 C_c :3d2+   0.0191   0.0212   0.0000  -0.0046   0.0019  -0.0000   0.0000
 197 C_c :3d2-  -0.0120   0.0232  -0.0000   0.0143   0.0032  -0.0000   0.0000
 199 C_c :3d0   -0.0001  -0.0124   0.0000   0.0193  -0.0104  -0.0000   0.0000
 200 C_c :3d1+  -0.0000   0.0000  -0.0200   0.0000  -0.0000  -0.0126  -0.0057
 201 C_c :3d2+   0.0303   0.0159  -0.0000  -0.0260   0.0076   0.0000   0.0000
 216 C_c :4f3-   0.0038  -0.0107   0.0000  -0.0013   0.0000  -0.0000   0.0000
 242 C_d :1s     0.0017  -0.0653   0.0000  -0.0099  -0.0010   0.0000  -0.0000
 244 C_d :1s    -0.0227  -0.0567  -0.0000   0.0038  -0.0078   0.0000   0.0000
 245 C_d :1s     0.0104   0.0102   0.0000   0.0440  -0.0012   0.0000  -0.0000
 246 C_d :1s     0.0182   0.0088   0.0000   0.0126   0.0033  -0.0000  -0.0000
 247 C_d :2px   -0.1706  -0.0982  -0.0000   0.0177   0.0027   0.0000   0.0000
 248 C_d :2py    0.1134   0.3746  -0.0000   0.0255   0.0011   0.0000  -0.0000
 249 C_d :2pz    0.0000   0.0000  -0.2198   0.0000   0.0000   0.3562   0.0137
 253 C_d :2px   -0.0150  -0.0113  -0.0000   0.0024  -0.0016  -0.0000   0.0000
 254 C_d :2py    0.0040   0.0187  -0.0000   0.0000   0.0052   0.0000  -0.0000
 256 C_d :2px    0.0446  -0.0407   0.0000   0.0083   0.0016  -0.0000   0.0000
 257 C_d :2py    0.0817   0.0367   0.0000   0.0149   0.0077   0.0000   0.0000
 259 C_d :2px   -0.0006  -0.0102   0.0000   0.0297  -0.0307   0.0000   0.0000
 260 C_d :2py   -0.0034  -0.0011   0.0000   0.0179  -0.0255   0.0000  -0.0000
 267 C_d :3d2-  -0.0089  -0.0196  -0.0000  -0.0005  -0.0001   0.0000   0.0000
 272 C_d :3d2-   0.0204   0.0509   0.0000  -0.0036  -0.0039   0.0000   0.0000
 273 C_d :3d1-  -0.0000   0.0000   0.0014  -0.0000  -0.0000  -0.0152  -0.0005
 276 C_d :3d2+  -0.0058   0.0324  -0.0000   0.0015   0.0004   0.0000  -0.0000
 277 C_d :3d2-   0.0050   0.0125   0.0000   0.0038   0.0018  -0.0000  -0.0000
 278 C_d :3d1-   0.0000   0.0000  -0.0210   0.0000   0.0000  -0.0158  -0.0025
 280 C_d :3d1+   0.0000  -0.0000  -0.0117   0.0000   0.0000  -0.0136  -0.0019
 281 C_d :3d2+  -0.0071   0.0223  -0.0000  -0.0456   0.0086   0.0000  -0.0000
 296 C_d :4f3-   0.0159  -0.0008   0.0000   0.0029   0.0009  -0.0000   0.0000
 322 C_e :1s    -0.0108  -0.0843  -0.0000   0.0092  -0.0005  -0.0000  -0.0000
 324 C_e :1s     0.0097  -0.0509   0.0000  -0.0070   0.0162   0.0000  -0.0000
 325 C_e :1s    -0.0018   0.0433   0.0000   0.0351   0.0744  -0.0000  -0.0000
 326 C_e :1s     0.0080  -0.0092  -0.0000  -0.0358  -0.0170   0.0000   0.0000
 327 C_e :2px   -0.0916   0.0877   0.0000  -0.0306  -0.0023  -0.0000  -0.0000
 328 C_e :2py   -0.0258  -0.3665   0.0000  -0.0252  -0.0007  -0.0000   0.0000
 329 C_e :2pz   -0.0000   0.0000  -0.2946  -0.0000  -0.0000   0.2431   0.0021
 333 C_e :2px   -0.0163   0.0122  -0.0000   0.0149  -0.0101  -0.0000  -0.0000
 334 C_e :2py   -0.0047  -0.0148  -0.0000   0.0012   0.0070  -0.0000   0.0000
 336 C_e :2px    0.1055   0.0285   0.0000  -0.0151  -0.0247  -0.0000  -0.0000
 337 C_e :2py    0.0821  -0.0283   0.0000  -0.0119  -0.0125  -0.0000   0.0000
 339 C_e :2px    0.0135  -0.0013  -0.0000   0.0393  -0.0076  -0.0000   0.0000
 340 C_e :2py    0.0153  -0.0111   0.0000   0.0534   0.0052  -0.0000   0.0000
 341 C_e :2pz   -0.0000   0.0000  -0.0021  -0.0000  -0.0000   0.0016  -0.0115
 347 C_e :3d2-   0.0025  -0.0199   0.0000  -0.0016  -0.0004  -0.0000   0.0000
 352 C_e :3d2-  -0.0124   0.0483  -0.0000  -0.0084   0.0020   0.0000  -0.0000
 354 C_e :3d0    0.0015  -0.0113   0.0000  -0.0004  -0.0025   0.0000   0.0000
 355 C_e :3d1+  -0.0000   0.0000   0.0058  -0.0000  -0.0000  -0.0129   0.0008
 356 C_e :3d2+   0.0126   0.0288   0.0000  -0.0052   0.0018   0.0000   0.0000
 357 C_e :3d2-  -0.0135   0.0200  -0.0000  -0.0159  -0.0141   0.0000  -0.0000
 358 C_e :3d1-   0.0000  -0.0000   0.0001  -0.0000   0.0000  -0.0142  -0.0039
 360 C_e :3d1+  -0.0000   0.0000  -0.0152   0.0000  -0.0000  -0.0306  -0.0035
 361 C_e :3d2+   0.0300   0.0196  -0.0000  -0.0553   0.0152   0.0000  -0.0000
 376 C_e :4f3-   0.0208   0.0021   0.0000  -0.0041  -0.0003  -0.0000  -0.0000
 402 C_f :1s     0.0383  -0.0432   0.0000  -0.0175  -0.0061   0.0000   0.0000
 404 C_f :1s     0.0252  -0.0508   0.0000  -0.0054   0.0168  -0.0000  -0.0000
 405 C_f :1s    -0.0275   0.0395  -0.0000   0.0284  -0.0276  -0.0000  -0.0000
 406 C_f :1s    -0.0074  -0.0051  -0.0000   0.0218  -0.1091   0.0000  -0.0000
 407 C_f :2px    0.0661  -0.1099  -0.0000   0.0361   0.0049   0.0000   0.0000
 408 C_f :2py   -0.2755   0.2713  -0.0000   0.0485   0.0129  -0.0000   0.0000
 409 C_f :2pz   -0.0000   0.0000  -0.3384  -0.0000  -0.0000   0.1095  -0.0061
 413 C_f :2px   -0.0094  -0.0187  -0.0000   0.0032  -0.0133  -0.0000  -0.0000
 414 C_f :2py   -0.0191   0.0099  -0.0000   0.0043  -0.0168  -0.0000   0.0000
 416 C_f :2px    0.0921   0.0222  -0.0000  -0.0232  -0.0068   0.0000   0.0000
 417 C_f :2py    0.0250   0.0571  -0.0000  -0.0086   0.0349   0.0000   0.0000
 419 C_f :2px    0.0019  -0.0003   0.0000  -0.0190   0.0128  -0.0000   0.0000
 427 C_f :3d2-   0.0124  -0.0172   0.0000  -0.0008  -0.0004  -0.0000  -0.0000
 432 C_f :3d2-  -0.0222   0.0453  -0.0000   0.0058  -0.0049   0.0000   0.0000
 435 C_f :3d1+  -0.0000  -0.0000  -0.0118  -0.0000  -0.0000  -0.0029   0.0011
 436 C_f :3d2+  -0.0248   0.0179  -0.0000   0.0144  -0.0162  -0.0000   0.0000
 437 C_f :3d2-  -0.0075   0.0153  -0.0000   0.0146  -0.0244   0.0000   0.0000
 438 C_f :3d1-  -0.0000   0.0000  -0.0144   0.0000  -0.0000  -0.0250  -0.0008
 440 C_f :3d1+   0.0000  -0.0000  -0.0083   0.0000   0.0000  -0.0316   0.0037
 441 C_f :3d2+  -0.0120   0.0035  -0.0000  -0.0207  -0.0292   0.0000   0.0000
 456 C_f :4f3-   0.0135   0.0087  -0.0000  -0.0061   0.0027   0.0000   0.0000
 462 C_f :4f3+  -0.0110   0.0035  -0.0000   0.0020   0.0003  -0.0000   0.0000
 482 C_g :1s     0.0547  -0.0722   0.0000   0.0232  -0.0085  -0.0000  -0.0000
 484 C_g :1s     0.0372  -0.0341   0.0000  -0.0353  -0.0095   0.0000   0.0000
 485 C_g :1s    -0.0112   0.0016  -0.0000   0.0465  -0.0651   0.0000  -0.0000
 486 C_g :1s    -0.0045   0.0227   0.0000  -0.0946  -0.0135   0.0000   0.0000
 487 C_g :2px   -0.1741   0.0066   0.0000  -0.0722   0.0184   0.0000   0.0000
 488 C_g :2py    0.3005  -0.2408   0.0000  -0.0466  -0.0178   0.0000  -0.0000
 489 C_g :2pz   -0.0000  -0.0000  -0.3522  -0.0000  -0.0000  -0.1354  -0.0135
 493 C_g :2px   -0.0093   0.0030  -0.0000   0.0249   0.0061  -0.0000   0.0000
 494 C_g :2py    0.0116  -0.0123   0.0000   0.0030  -0.0150  -0.0000  -0.0000
 496 C_g :2px   -0.0101   0.0371  -0.0000   0.0655   0.0011   0.0000   0.0000
 497 C_g :2py    0.0684   0.0005   0.0000  -0.0057  -0.0168   0.0000  -0.0000
 498 C_g :2pz   -0.0000  -0.0000   0.0036  -0.0000  -0.0000  -0.0008   0.0112
 499 C_g :2px   -0.0003   0.0024   0.0000   0.0734   0.0040   0.0000  -0.0000
 500 C_g :2py   -0.0092   0.0043   0.0000   0.0087  -0.0234   0.0000  -0.0000
 501 C_g :2pz   -0.0000  -0.0000  -0.0050  -0.0000  -0.0000  -0.0021   0.0207
 507 C_g :3d2-   0.0179  -0.0112  -0.0000  -0.0016  -0.0022   0.0000   0.0000
 512 C_g :3d2-  -0.0436   0.0357  -0.0000   0.0119  -0.0212  -0.0000  -0.0000
 516 C_g :3d2+  -0.0123   0.0259  -0.0000  -0.0036  -0.0034  -0.0000  -0.0000
 517 C_g :3d2-  -0.0182   0.0054   0.0000   0.0113   0.0021  -0.0000   0.0000
 518 C_g :3d1-   0.0000   0.0000   0.0039  -0.0000  -0.0000  -0.0256  -0.0072
 519 C_g :3d0    0.0046  -0.0069  -0.0000   0.0185  -0.0055  -0.0000  -0.0000
 520 C_g :3d1+  -0.0000   0.0000  -0.0057   0.0000  -0.0000  -0.0273  -0.0105
 521 C_g :3d2+   0.0162   0.0240  -0.0000  -0.0421  -0.0134  -0.0000  -0.0000
 562 C_h :1s     0.0369  -0.0065  -0.0000  -0.0359  -0.0057   0.0000   0.0000
 564 C_h :1s     0.0338  -0.0355   0.0000   0.0047  -0.0065   0.0000  -0.0000
 565 C_h :1s    -0.0357  -0.0386  -0.0000   0.0045  -0.0850   0.0000   0.0000
 566 C_h :1s    -0.0348   0.0481   0.0000  -0.1817   0.2561  -0.0000   0.0000
 567 C_h :2px    0.1824  -0.0334  -0.0000   0.0836  -0.0196  -0.0000  -0.0000
 568 C_h :2py   -0.2505   0.0914   0.0000   0.0842   0.0555   0.0000  -0.0000
 569 C_h :2pz    0.0000  -0.0000  -0.3433   0.0000   0.0000  -0.2668  -0.0159
 573 C_h :2px    0.0103  -0.0170  -0.0000   0.0227   0.0082  -0.0000   0.0000
 574 C_h :2py   -0.0123  -0.0008  -0.0000   0.0133   0.0041  -0.0000  -0.0000
 576 C_h :2px   -0.0205   0.0469   0.0000   0.0250   0.0839  -0.0000   0.0000
 577 C_h :2py   -0.0881   0.0378   0.0000   0.0574   0.0301  -0.0000  -0.0000
 579 C_h :2px    0.0185  -0.0081   0.0000   0.0667   0.0783  -0.0000   0.0000
 580 C_h :2py    0.0185  -0.0064   0.0000   0.0623   0.0431  -0.0000   0.0000
 587 C_h :3d2-   0.0167  -0.0075   0.0000  -0.0015  -0.0026  -0.0000   0.0000
 592 C_h :3d2-  -0.0375   0.0362  -0.0000  -0.0062  -0.0074  -0.0000   0.0000
 595 C_h :3d1+   0.0000  -0.0000  -0.0092   0.0000   0.0000  -0.0148  -0.0059
 596 C_h :3d2+  -0.0073   0.0056  -0.0000   0.0196   0.0142   0.0000   0.0000
 597 C_h :3d2-  -0.0058   0.0253   0.0000  -0.0344   0.0445   0.0000   0.0000
 598 C_h :3d1-  -0.0000   0.0000  -0.0084   0.0000  -0.0000  -0.0134   0.0053
 599 C_h :3d0    0.0035  -0.0090   0.0000   0.0077  -0.0141   0.0000  -0.0000
 600 C_h :3d1+   0.0000   0.0000   0.0041   0.0000   0.0000  -0.0297  -0.0067
 601 C_h :3d2+  -0.0193   0.0132  -0.0000  -0.0768   0.0478   0.0000  -0.0000
 642 C_i :1s     0.0632  -0.0410   0.0000   0.0292   0.0493  -0.0000  -0.0000
 644 C_i :1s     0.0115  -0.0074  -0.0000   0.0059   0.0649  -0.0000  -0.0000
 645 C_i :1s    -0.0470  -0.0057   0.0000  -0.0748   0.1021  -0.0000  -0.0000
 646 C_i :1s     0.0297   0.0242   0.0000   0.1071  -0.1332   0.0000  -0.0000
 647 C_i :2px   -0.0463  -0.0180  -0.0000  -0.1410  -0.0089   0.0000   0.0000
 648 C_i :2py    0.2139  -0.0793  -0.0000  -0.0751  -0.0807  -0.0000   0.0000
 649 C_i :2pz    0.0000  -0.0000  -0.2539   0.0000   0.0000  -0.3137  -0.0090
 653 C_i :2px    0.0006  -0.0032   0.0000   0.0025  -0.0199   0.0000   0.0000
 654 C_i :2py    0.0132  -0.0077  -0.0000   0.0297   0.0124  -0.0000   0.0000
 656 C_i :2px   -0.0755   0.0265  -0.0000  -0.0175   0.0282   0.0000  -0.0000
 657 C_i :2py   -0.0425   0.0435   0.0000   0.0494   0.0653  -0.0000  -0.0000
 658 C_i :2pz    0.0000  -0.0000   0.0068   0.0000   0.0000   0.0060  -0.0141
 659 C_i :2px   -0.0179  -0.0079  -0.0000   0.0494  -0.1037   0.0000  -0.0000
 660 C_i :2py   -0.0004  -0.0118  -0.0000   0.0726  -0.1222   0.0000  -0.0000
 661 C_i :2pz    0.0000  -0.0000   0.0002   0.0000   0.0000  -0.0030  -0.0266
 672 C_i :3d2-  -0.0115   0.0129  -0.0000   0.0167  -0.0084   0.0000   0.0000
 673 C_i :3d1-   0.0000  -0.0000  -0.0055   0.0000   0.0000  -0.0135  -0.0083
 676 C_i :3d2+  -0.0140   0.0135  -0.0000   0.0118   0.0086   0.0000  -0.0000
 677 C_i :3d2-  -0.0148   0.0067  -0.0000   0.0346  -0.0206   0.0000  -0.0000
 678 C_i :3d1-  -0.0000   0.0000   0.0149   0.0000  -0.0000  -0.0144  -0.0080
 679 C_i :3d0   -0.0024  -0.0024  -0.0000  -0.0207   0.0091  -0.0000   0.0000
 680 C_i :3d1+  -0.0000   0.0000  -0.0047   0.0000  -0.0000  -0.0112   0.0005
 681 C_i :3d2+   0.0116   0.0180   0.0000  -0.0519  -0.0044   0.0000  -0.0000
 696 C_i :4f3-  -0.0088   0.0101   0.0000  -0.0094   0.0074   0.0000  -0.0000
 702 C_i :4f3+   0.0044  -0.0017   0.0000  -0.0009  -0.0243  -0.0000   0.0000
 722 C_j :1s     0.0005   0.0181   0.0000  -0.1061   0.0156  -0.0000  -0.0000
 724 C_j :1s     0.0077  -0.0080  -0.0000  -0.0329  -0.0376   0.0000   0.0000
 725 C_j :1s    -0.0631  -0.0239   0.0000   0.0378   0.1039  -0.0000   0.0000
 726 C_j :1s     0.0018  -0.0553  -0.0000   0.3142  -0.0565  -0.0000   0.0000
 727 C_j :2px    0.0683   0.0003   0.0000   0.1567   0.0497  -0.0000  -0.0000
 728 C_j :2py   -0.0231  -0.0081  -0.0000   0.2754  -0.1492   0.0000   0.0000
 729 C_j :2pz    0.0000  -0.0000  -0.1840   0.0000   0.0000  -0.2749  -0.0184
 733 C_j :2px    0.0052  -0.0036   0.0000  -0.0392  -0.0608  -0.0000   0.0000
 734 C_j :2py   -0.0057  -0.0029  -0.0000  -0.0162  -0.0114  -0.0000   0.0000
 736 C_j :2px   -0.0525   0.0173  -0.0000   0.0296  -0.1683   0.0000  -0.0000
 737 C_j :2py   -0.0178  -0.0003   0.0000  -0.0457   0.0187   0.0000   0.0000
 739 C_j :2px    0.0161  -0.0138   0.0000   0.0606   0.0856  -0.0000   0.0000
 740 C_j :2py    0.0063   0.0006   0.0000   0.0051   0.0679  -0.0000   0.0000
 741 C_j :2pz    0.0000   0.0000  -0.0021  -0.0000   0.0000  -0.0012   0.0210
 747 C_j :3d2-   0.0053  -0.0012   0.0000  -0.0103   0.0060   0.0000  -0.0000
 751 C_j :3d2+   0.0007  -0.0003   0.0000   0.0128   0.0013   0.0000   0.0000
 752 C_j :3d2-   0.0001   0.0042  -0.0000   0.0207   0.0203  -0.0000   0.0000
 755 C_j :3d1+   0.0000  -0.0000  -0.0075  -0.0000   0.0000  -0.0146   0.0056
 756 C_j :3d2+   0.0058  -0.0052   0.0000   0.0237   0.0100  -0.0000   0.0000
 757 C_j :3d2-  -0.0086  -0.0001  -0.0000   0.0658  -0.0102   0.0000  -0.0000
 760 C_j :3d1+  -0.0000   0.0000   0.0054  -0.0000  -0.0000  -0.0109   0.0187
 761 C_j :3d2+   0.0036  -0.0010   0.0000   0.0093   0.0526   0.0000  -0.0000
 769 C_j :4f3-  -0.0003   0.0005   0.0000  -0.0090  -0.0133   0.0000  -0.0000
 776 C_j :4f3-  -0.0071   0.0045  -0.0000  -0.0080  -0.0115   0.0000  -0.0000
 802 N_a :1s    -0.0218  -0.0195   0.0000  -0.0017  -0.0001   0.0000   0.0000
 805 N_a :1s    -0.0031  -0.0012   0.0000   0.0102  -0.0053   0.0000   0.0000
 806 N_a :1s    -0.0109  -0.0094   0.0000   0.0100  -0.0010  -0.0000   0.0000
 807 N_a :2px    0.0063   0.0264   0.0000   0.0032   0.0003  -0.0000  -0.0000
 808 N_a :2py    0.0412   0.0263  -0.0000   0.0021   0.0002   0.0000  -0.0000
 809 N_a :2pz   -0.0000   0.0000   0.1438  -0.0000  -0.0000  -0.2489  -0.0123
 818 N_a :2pz   -0.0000   0.0000   0.0041   0.0000  -0.0000  -0.0128  -0.0001
 882 N_b :1s     0.0136  -0.0063   0.0000  -0.0257   0.0065   0.0000   0.0000
 885 N_b :1s     0.0006   0.0011   0.0000  -0.1058  -0.0089   0.0000   0.0000
 886 N_b :1s    -0.0016   0.0218   0.0000  -0.1754   0.0685   0.0000  -0.0000
 887 N_b :2px    0.0154  -0.0077   0.0000  -0.0894   0.1151  -0.0000   0.0000
 888 N_b :2py    0.0312   0.0002  -0.0000  -0.2630   0.0438   0.0000  -0.0000
 889 N_b :2pz    0.0000  -0.0000   0.0349  -0.0000   0.0000   0.0354  -0.0063
 893 N_b :2px    0.0011  -0.0006   0.0000   0.0130   0.0088   0.0000  -0.0000
 894 N_b :2py   -0.0012  -0.0008   0.0000   0.0096  -0.0161  -0.0000   0.0000
 896 N_b :2px    0.0010   0.0028  -0.0000  -0.0442   0.0644  -0.0000  -0.0000
 897 N_b :2py   -0.0105   0.0126  -0.0000  -0.1053   0.0037   0.0000   0.0000
 898 N_b :2pz    0.0000  -0.0000  -0.0124  -0.0000   0.0000  -0.0125   0.0005
 899 N_b :2px   -0.0114   0.0066  -0.0000  -0.0488  -0.0686   0.0000  -0.0000
 900 N_b :2py   -0.0054   0.0098   0.0000  -0.0829   0.0278   0.0000  -0.0000
 907 N_b :3d2-  -0.0011   0.0022  -0.0000  -0.0295  -0.0081   0.0000   0.0000
 908 N_b :3d1-  -0.0000   0.0000  -0.0035  -0.0000  -0.0000  -0.0049  -0.0129
 910 N_b :3d1+   0.0000  -0.0000  -0.0022   0.0000   0.0000  -0.0037   0.0273
 911 N_b :3d2+  -0.0003  -0.0000  -0.0000   0.0156  -0.0253   0.0000  -0.0000
 912 N_b :3d2-   0.0014   0.0001  -0.0000  -0.0172   0.0164  -0.0000   0.0000
 913 N_b :3d1-  -0.0000   0.0000  -0.0051  -0.0000  -0.0000  -0.0071  -0.0143
 915 N_b :3d1+   0.0000  -0.0000  -0.0025   0.0000   0.0000  -0.0046   0.0317
 916 N_b :3d2+  -0.0001  -0.0005   0.0000   0.0370   0.0067  -0.0000   0.0000
 917 N_b :3d2-   0.0071  -0.0036  -0.0000   0.0255   0.0681  -0.0000   0.0000
 920 N_b :3d1+  -0.0000   0.0000  -0.0005  -0.0000   0.0000  -0.0004  -0.0170
 921 N_b :3d2+   0.0044  -0.0011   0.0000   0.0129   0.0937  -0.0000   0.0000
 929 N_b :4f3-   0.0009  -0.0005  -0.0000   0.0041   0.0128  -0.0000   0.0000
 962 O_a :1s     0.0123  -0.0017  -0.0000  -0.0110   0.0052  -0.0000  -0.0000
 965 O_a :1s     0.0036   0.0009  -0.0000  -0.0139   0.0212  -0.0000   0.0000
 966 O_a :1s     0.0090  -0.0073   0.0000   0.0367   0.1200  -0.0000   0.0000
 967 O_a :2px   -0.0088   0.0059  -0.0000   0.1121  -0.6848   0.0000  -0.0000
 968 O_a :2py   -0.0157  -0.0146  -0.0000   0.4025  -0.4369   0.0000   0.0000
 969 O_a :2pz   -0.0000   0.0000   0.0569  -0.0000  -0.0000   0.0659   0.6510
 975 O_a :2pz    0.0000  -0.0000   0.0006   0.0000   0.0000   0.0005   0.0105
 976 O_a :2px   -0.0011  -0.0016  -0.0000   0.0343  -0.0828   0.0000  -0.0000
 977 O_a :2py   -0.0036  -0.0010  -0.0000   0.0366  -0.0725  -0.0000   0.0000
 978 O_a :2pz   -0.0000   0.0000   0.0070  -0.0000  -0.0000   0.0078   0.0699
 979 O_a :2px    0.0011  -0.0014  -0.0000   0.0173  -0.0492   0.0000  -0.0000
 980 O_a :2py    0.0012  -0.0033  -0.0000   0.0344  -0.0129  -0.0000   0.0000
 981 O_a :2pz   -0.0000   0.0000   0.0011  -0.0000  -0.0000   0.0043   0.0365
 993 O_a :3d1-  -0.0000   0.0000   0.0017  -0.0000  -0.0000   0.0015   0.0188
 995 O_a :3d1+   0.0000  -0.0000  -0.0015   0.0000   0.0000  -0.0017  -0.0113
 996 O_a :3d2+   0.0000   0.0006   0.0000  -0.0081   0.0203  -0.0000   0.0000
 998 O_a :3d1-  -0.0000   0.0000   0.0021   0.0000  -0.0000   0.0024   0.0172
1001 O_a :3d2+   0.0007   0.0010   0.0000  -0.0169   0.0276  -0.0000   0.0000
1045 O_b :1s    -0.0016   0.0026  -0.0000  -0.0370  -0.0005   0.0000  -0.0000
1046 O_b :1s    -0.0070   0.0003  -0.0000  -0.0328  -0.1210   0.0000  -0.0000
1047 O_b :2px   -0.0142   0.0063  -0.0000   0.1253  -0.2351   0.0000  -0.0000
1048 O_b :2py    0.0636  -0.0612   0.0000   0.7515   0.4530  -0.0000   0.0000
1049 O_b :2pz    0.0000   0.0000   0.0714   0.0000  -0.0000   0.1138  -0.6409
1055 O_b :2pz    0.0000   0.0000   0.0011   0.0000   0.0000   0.0016  -0.0103
1057 O_b :2py    0.0064  -0.0072   0.0000   0.0867   0.0508  -0.0000   0.0000
1058 O_b :2pz   -0.0000   0.0000   0.0072   0.0000  -0.0000   0.0099  -0.0703
1059 O_b :2px   -0.0012   0.0004  -0.0000   0.0003  -0.0245   0.0000  -0.0000
1060 O_b :2py    0.0058  -0.0057   0.0000   0.0510   0.0284  -0.0000   0.0000
1061 O_b :2pz   -0.0000   0.0000   0.0024   0.0000  -0.0000   0.0054  -0.0340
1072 O_b :3d2-   0.0019  -0.0018  -0.0000   0.0176   0.0112  -0.0000   0.0000
1075 O_b :3d1+  -0.0000   0.0000   0.0029   0.0000  -0.0000   0.0040  -0.0222
1077 O_b :3d2-   0.0020  -0.0022   0.0000   0.0271   0.0111  -0.0000   0.0000
1080 O_b :3d1+  -0.0000   0.0000   0.0026   0.0000  -0.0000   0.0033  -0.0188
1121 H_a :1s     0.1379   0.0622  -0.0000   0.0008   0.0000   0.0000  -0.0000
1123 H_a :1s    -0.0336  -0.0048   0.0000  -0.0046   0.0038  -0.0000   0.0000
1124 H_a :1s    -0.0110   0.0265   0.0000   0.0240   0.0038  -0.0000   0.0000
1167 H_b :1s     0.2961   0.1883  -0.0000   0.0022  -0.0002  -0.0000   0.0000
1169 H_b :1s    -0.0490  -0.0067   0.0000  -0.0109   0.0074   0.0000  -0.0000
1170 H_b :1s    -0.0803  -0.0152  -0.0000  -0.0269   0.0281   0.0000   0.0000
1171 H_b :1s     0.0013   0.0008  -0.0000  -0.0129  -0.0084   0.0000  -0.0000
1183 H_b :2pz    0.0000  -0.0000   0.0118  -0.0000   0.0000   0.0026   0.0022
1213 H_c :1s     0.0406   0.0102  -0.0000  -0.0004  -0.0000   0.0000  -0.0000
1216 H_c :1s     0.0115   0.0096   0.0000  -0.0104   0.0097  -0.0000   0.0000
1259 H_d :1s    -0.0121   0.0178   0.0000   0.0030   0.0003  -0.0000  -0.0000
1262 H_d :1s    -0.0105  -0.0191   0.0000   0.0145  -0.0127   0.0000   0.0000
1305 H_e :1s     0.3392   0.3253   0.0000   0.0067  -0.0004  -0.0000   0.0000
1306 H_e :1s    -0.0106  -0.0099  -0.0000  -0.0003  -0.0003   0.0000  -0.0000
1307 H_e :1s    -0.0510  -0.0140  -0.0000  -0.0018  -0.0079   0.0000  -0.0000
1308 H_e :1s    -0.1281  -0.0751  -0.0000   0.0448  -0.0126   0.0000  -0.0000
1309 H_e :1s    -0.0041   0.0066  -0.0000  -0.0309  -0.0026   0.0000  -0.0000
1319 H_e :2px   -0.0052   0.0062   0.0000   0.0131  -0.0026  -0.0000   0.0000
1320 H_e :2py   -0.0240  -0.0048  -0.0000   0.0097  -0.0009   0.0000  -0.0000
1321 H_e :2pz   -0.0000   0.0000   0.0101  -0.0000  -0.0000   0.0034   0.0024
1351 H_f :1s     0.2292   0.4237  -0.0000   0.0080  -0.0012   0.0000  -0.0000
1352 H_f :1s    -0.0075  -0.0134   0.0000  -0.0005  -0.0001  -0.0000   0.0000
1353 H_f :1s    -0.0420  -0.0411   0.0000  -0.0088  -0.0067  -0.0000   0.0000
1354 H_f :1s    -0.0958  -0.1194  -0.0000  -0.0335   0.0143  -0.0000  -0.0000
1355 H_f :1s    -0.0023  -0.0017   0.0000   0.0204   0.0055  -0.0000   0.0000
1365 H_f :2px   -0.0149  -0.0033  -0.0000  -0.0179  -0.0011   0.0000  -0.0000
1366 H_f :2py    0.0056   0.0159  -0.0000  -0.0081   0.0008   0.0000  -0.0000
1397 H_g :1s    -0.0489   0.4030  -0.0000   0.0137   0.0005   0.0000  -0.0000
1398 H_g :1s     0.0016  -0.0122   0.0000  -0.0005   0.0003  -0.0000   0.0000
1399 H_g :1s     0.0045  -0.0382  -0.0000  -0.0199   0.0050  -0.0000   0.0000
1400 H_g :1s     0.0151  -0.0960   0.0000  -0.0268  -0.0090  -0.0000   0.0000
1401 H_g :1s    -0.0002  -0.0121  -0.0000   0.0355   0.0141  -0.0000   0.0000
1411 H_g :2px   -0.0191   0.0053  -0.0000   0.0189  -0.0005  -0.0000   0.0000
1412 H_g :2py   -0.0116  -0.0121   0.0000   0.0144  -0.0038  -0.0000   0.0000
1443 H_h :1s    -0.2944   0.3438  -0.0000   0.0118   0.0083  -0.0000   0.0000
1444 H_h :1s     0.0094  -0.0106   0.0000  -0.0008  -0.0001   0.0000   0.0000
1445 H_h :1s     0.0433  -0.0333  -0.0000   0.0062  -0.0072   0.0000  -0.0000
1446 H_h :1s     0.0879  -0.0925  -0.0000   0.0083  -0.0906   0.0000   0.0000
1447 H_h :1s     0.0059  -0.0027  -0.0000  -0.0217  -0.0049   0.0000  -0.0000
1457 H_h :2px   -0.0018  -0.0093  -0.0000  -0.0146  -0.0174   0.0000  -0.0000
1458 H_h :2py   -0.0146   0.0067  -0.0000  -0.0067   0.0035   0.0000  -0.0000
1489 H_i :1s    -0.3949   0.2164   0.0000   0.0149   0.0306  -0.0000  -0.0000
1490 H_i :1s     0.0122  -0.0066   0.0000  -0.0010  -0.0018   0.0000  -0.0000
1491 H_i :1s     0.0493  -0.0078   0.0000   0.0041  -0.0294  -0.0000  -0.0000
1492 H_i :1s     0.1438  -0.0614   0.0000  -0.0201  -0.0327  -0.0000   0.0000
1493 H_i :1s     0.0023   0.0083   0.0000  -0.0463  -0.0172   0.0000  -0.0000
1503 H_i :2px   -0.0217  -0.0039   0.0000   0.0326   0.0125   0.0000   0.0000
1504 H_i :2py    0.0091  -0.0110   0.0000   0.0116   0.0103   0.0000   0.0000
1535 H_j :1s    -0.3652   0.1272   0.0000  -0.0007   0.0632   0.0000  -0.0000
1536 H_j :1s     0.0116  -0.0038  -0.0000  -0.0004  -0.0016  -0.0000   0.0000
1537 H_j :1s     0.0526   0.0115  -0.0000   0.0006  -0.0015  -0.0000   0.0000
1538 H_j :1s     0.1310   0.0010   0.0000  -0.0773   0.0998   0.0000   0.0000
1549 H_j :2px    0.0029  -0.0004  -0.0000  -0.0296   0.0141   0.0000  -0.0000
1550 H_j :2py   -0.0188  -0.0023  -0.0000  -0.0156  -0.0133   0.0000  -0.0000
1581 H_k :1s    -0.2082   0.0428  -0.0000   0.0197   0.0517   0.0000  -0.0000
1583 H_k :1s     0.0375   0.0081  -0.0000   0.0379  -0.0377  -0.0000   0.0000
1584 H_k :1s     0.0429   0.0266  -0.0000   0.0422   0.0014   0.0000  -0.0000
1585 H_k :1s     0.0010  -0.0042   0.0000   0.0304  -0.0040  -0.0000   0.0000
1592 H_k :2px   -0.0020   0.0007   0.0000  -0.0098   0.0125  -0.0000  -0.0000
1595 H_k :2px   -0.0054  -0.0100   0.0000   0.0154   0.0269  -0.0000   0.0000
1596 H_k :2py    0.0027  -0.0003  -0.0000   0.0284   0.0216  -0.0000   0.0000
1597 H_k :2pz    0.0000  -0.0000   0.0124  -0.0000  -0.0000  -0.0052  -0.0033
1608 H_k :3d2-  -0.0001  -0.0001  -0.0000  -0.0024   0.0107   0.0000  -0.0000
1627 H_l :1s    -0.0892   0.0100  -0.0000   0.0783  -0.1470   0.0000   0.0000
1629 H_l :1s     0.0259   0.0045   0.0000   0.0129   0.0203   0.0000  -0.0000
1630 H_l :1s    -0.0132   0.0054  -0.0000   0.1242  -0.1037   0.0000  -0.0000
1631 H_l :1s     0.0054  -0.0062   0.0000   0.0202   0.0126  -0.0000  -0.0000
1641 H_l :2px   -0.0005  -0.0001   0.0000   0.0132  -0.0002   0.0000  -0.0000
1642 H_l :2py    0.0044  -0.0040   0.0000  -0.0086   0.0340  -0.0000   0.0000
1643 H_l :2pz    0.0000  -0.0000   0.0098   0.0000  -0.0000  -0.0055   0.0102

    Orbital        49       50       51       52       53       54       55
   2 C_a :1s     0.0000   0.0000  -0.0000   0.0208   0.0360   0.0000   0.0084
   3 C_a :1s     0.0000   0.0000  -0.0000   0.0131  -0.0023   0.0000   0.0031
   4 C_a :1s    -0.0000  -0.0000   0.0000   0.0309   0.0156  -0.0000  -0.5780
   5 C_a :1s     0.0000   0.0000   0.0000  -2.8090  -0.0660   0.0000   0.0074
   6 C_a :1s    -0.0000   0.0000   0.0000  -2.8424 -21.9433   0.0000  10.9326
   7 C_a :2px   -0.0000  -0.0000   0.0000   0.0085   0.0262   0.0000   0.0173
   8 C_a :2py    0.0000  -0.0000  -0.0000  -0.0571  -0.0303   0.0000  -0.0028
   9 C_a :2pz   -0.0863   0.2017  -0.2648  -0.0000  -0.0000  -0.2099   0.0000
  13 C_a :2px    0.0000   0.0000  -0.0000   0.1309  -0.0025   0.0000   0.0939
  14 C_a :2py    0.0000   0.0000  -0.0000   0.0627  -0.0179   0.0000  -0.0693
  16 C_a :2px   -0.0000  -0.0000   0.0000   0.2986  -1.3143   0.0000   1.4589
  17 C_a :2py    0.0000   0.0000  -0.0000  -0.4977   0.4374   0.0000  -1.5936
  18 C_a :2pz   -0.0057  -0.0012   0.0017  -0.0000  -0.0000  -0.0347   0.0000
  19 C_a :2px   -0.0000  -0.0000   0.0000   5.9573   4.6908  -0.0000  -2.9855
  20 C_a :2py    0.0000  -0.0000  -0.0000   1.2990  -3.5861   0.0000  -1.0394
  21 C_a :2pz   -0.0021   0.0058  -0.0144  -0.0000  -0.0000  -0.1602   0.0000
  30 C_a :3d1+   0.0121  -0.0149   0.0137  -0.0000   0.0000   0.0023   0.0000
  32 C_a :3d2-   0.0000   0.0000  -0.0000   0.4104  -0.0868   0.0000   0.3225
  34 C_a :3d0   -0.0000  -0.0000   0.0000   0.1282  -0.0123  -0.0000  -0.1317
  35 C_a :3d1+   0.0172  -0.0217   0.0171   0.0000  -0.0000  -0.0238   0.0000
  36 C_a :3d2+   0.0000   0.0000  -0.0000  -0.0993  -0.1309   0.0000   0.1403
  37 C_a :3d2-   0.0000   0.0000  -0.0000   1.0914   0.6219   0.0000   0.6904
  38 C_a :3d1-   0.0036  -0.0028   0.0066  -0.0000   0.0000  -0.0279   0.0000
  39 C_a :3d0    0.0000  -0.0000   0.0000   0.7492   0.1588  -0.0000  -1.0759
  40 C_a :3d1+   0.0067  -0.0126   0.0070   0.0000   0.0000  -0.0543  -0.0000
  41 C_a :3d2+   0.0000   0.0000  -0.0000   0.2383   0.5907   0.0000   0.1225
  49 C_a :4f3-   0.0000   0.0000  -0.0000  -0.0151  -0.0253   0.0000  -0.0013
  56 C_a :4f3-  -0.0000  -0.0000   0.0000  -0.0411  -0.0257   0.0000  -0.1077
  58 C_a :4f1-   0.0000  -0.0000   0.0000  -0.0368   0.0191  -0.0000   0.0436
  60 C_a :4f1+   0.0000   0.0000  -0.0000   0.0092   0.0446   0.0000  -0.0096
  62 C_a :4f3+   0.0000   0.0000  -0.0000   0.0863   0.1513   0.0000  -0.1664
  80 C_a :5g4+  -0.0000  -0.0000   0.0000  -0.0049   0.0083  -0.0000  -0.0261
  82 C_b :1s     0.0000   0.0000   0.0000   0.0191  -0.0279  -0.0000   0.0131
  83 C_b :1s     0.0000   0.0000   0.0000   0.0036   0.0111  -0.0000   0.0285
  84 C_b :1s    -0.0000   0.0000  -0.0000  -0.0765  -0.1726   0.0000  -0.5838
  85 C_b :1s     0.0000   0.0000  -0.0000  -0.6502  -1.7894  -0.0000  -1.9522
  86 C_b :1s     0.0000   0.0000  -0.0000   3.1777  20.6654  -0.0000  -3.0747
  87 C_b :2px    0.0000   0.0000  -0.0000  -0.0093   0.0159   0.0000  -0.0137
  88 C_b :2py    0.0000   0.0000   0.0000   0.0228  -0.0296   0.0000   0.0244
  89 C_b :2pz   -0.2993   0.3602  -0.3025   0.0000  -0.0000  -0.0005  -0.0000
  93 C_b :2px    0.0000   0.0000  -0.0000   0.2887   0.1880   0.0000  -0.0318
  94 C_b :2py   -0.0000  -0.0000   0.0000   0.0211   0.1151   0.0000   0.0842
  96 C_b :2px   -0.0000   0.0000   0.0000   1.5527  -1.4996  -0.0000   0.4936
  97 C_b :2py   -0.0000   0.0000   0.0000   1.0817   1.1548   0.0000   2.2165
  98 C_b :2pz   -0.0067   0.0245  -0.0415   0.0000  -0.0000   0.0113  -0.0000
  99 C_b :2px   -0.0000   0.0000  -0.0000   2.8930   4.9550  -0.0000  -2.7468
 100 C_b :2py   -0.0000   0.0000  -0.0000   2.5426  -1.4834  -0.0000   0.3602
 101 C_b :2pz   -0.0061   0.0182  -0.0361   0.0000  -0.0000   0.0331  -0.0000
 109 C_b :3d0    0.0000   0.0000   0.0000  -0.0003   0.0048  -0.0000   0.0114
 110 C_b :3d1+  -0.0008   0.0072  -0.0121   0.0000  -0.0000  -0.0106  -0.0000
 112 C_b :3d2-  -0.0000  -0.0000   0.0000   0.3590   0.0254  -0.0000   0.4301
 113 C_b :3d1-   0.0121  -0.0091  -0.0030  -0.0000   0.0000  -0.0222   0.0000
 114 C_b :3d0   -0.0000  -0.0000  -0.0000   0.0021   0.0336   0.0000  -0.0106
 115 C_b :3d1+  -0.0047   0.0097  -0.0165   0.0000   0.0000  -0.0410   0.0000
 116 C_b :3d2+   0.0000  -0.0000   0.0000   0.1844  -0.0237   0.0000   0.3706
 117 C_b :3d2-   0.0000  -0.0000   0.0000   1.7855  -0.3552  -0.0000   0.4738
 118 C_b :3d1-   0.0056  -0.0113   0.0005   0.0000  -0.0000  -0.0390  -0.0000
 119 C_b :3d0   -0.0000  -0.0000   0.0000  -0.4589  -0.5355   0.0000  -0.1993
 120 C_b :3d1+   0.0039   0.0005  -0.0131   0.0000  -0.0000  -0.0706  -0.0000
 121 C_b :3d2+  -0.0000   0.0000  -0.0000  -1.1728  -0.4763   0.0000   1.6032
 129 C_b :4f3-   0.0000  -0.0000   0.0000   0.0025   0.0174   0.0000   0.0079
 136 C_b :4f3-  -0.0000   0.0000   0.0000   0.2230  -0.0683  -0.0000  -0.0683
 138 C_b :4f1-   0.0000  -0.0000   0.0000   0.0199   0.0124   0.0000  -0.0112
 140 C_b :4f1+  -0.0000  -0.0000  -0.0000   0.0194   0.0831   0.0000  -0.0506
 141 C_b :4f2+   0.0030  -0.0036  -0.0003   0.0000   0.0000  -0.0111   0.0000
 142 C_b :4f3+   0.0000   0.0000  -0.0000  -0.0269   0.2459  -0.0000   0.0150
 152 C_b :5g4-   0.0000  -0.0000   0.0000   0.0023   0.0015  -0.0000   0.0133
 160 C_b :5g4+   0.0000  -0.0000   0.0000  -0.0083   0.0001   0.0000   0.0157
 162 C_c :1s    -0.0000  -0.0000  -0.0000  -0.0007   0.0226   0.0000   0.0223
[...]
      ----------------------------------------------------------------
         1    2.15192D-02  0.00D+00  2.15D-02  2.36D+01    0.00000D+00
         2    2.23977D-02  0.00D+00  2.24D-02  2.45D+01    2.15000D-02
         3    2.54403D-02  0.00D+00  2.54D-02  2.74D+01    4.30000D-02

 *** THE REQUESTED    3 SOLUTION VECTORS CONVERGED

 Convergence of RSP solution vectors, threshold = 1.00D-03
 ---------------------------------------------------------------
 (dimension of paired reduced space:   42)
 RSP solution vector no.    1; norm of residual   9.12D-04
 RSP solution vector no.    2; norm of residual   9.16D-04
 RSP solution vector no.    3; norm of residual   9.30D-04

 *** RSPCTL MICROITERATIONS CONVERGED

@ QRLRVE: SINGLET SOLUTION FOR SYMMETRY    1  ( A  )    LABEL   YDIPLEN     FREQUENCY   0.000000D+00

@ QRLRVE:  << XDIPLEN  ; YDIPLEN  >> (   0.00000):     198.786689826    

@ QRLRVE:  << YDIPLEN  ; YDIPLEN  >> (   0.00000):     240.432747817    

@ QRLRVE:  << ZDIPLEN  ; YDIPLEN  >> (   0.00000):    2.575955031790E-14

@ QRLRVE: SINGLET SOLUTION FOR SYMMETRY    1  ( A  )    LABEL   YDIPLEN     FREQUENCY   0.215000D-01

@ QRLRVE:  << XDIPLEN  ; YDIPLEN  >> (   0.02150):     204.509033392    

@ QRLRVE:  << YDIPLEN  ; YDIPLEN  >> (   0.02150):     243.991131714    

@ QRLRVE:  << ZDIPLEN  ; YDIPLEN  >> (   0.02150):    2.593678034061E-14

@ QRLRVE: SINGLET SOLUTION FOR SYMMETRY    1  ( A  )    LABEL   YDIPLEN     FREQUENCY   0.430000D-01

@ QRLRVE:  << XDIPLEN  ; YDIPLEN  >> (   0.04300):     223.833665525    

@ QRLRVE:  << YDIPLEN  ; YDIPLEN  >> (   0.04300):     255.938869831    

@ QRLRVE:  << ZDIPLEN  ; YDIPLEN  >> (   0.04300):    2.647859964071E-14


 QRLRVE -- linear response calculation for symmetry  1  ( A  )
 QRLRVE -- operator label : ZDIPLEN 
 QRLRVE -- operator spin  :   0
 QRLRVE -- frequencies :  0.000000  0.021500  0.043000



 ---  SOLVING SETS OF LINEAR EQUATIONS FOR LINEAR RESPONSE PROPERTIES ---

 Operator symmetry = 1  ( A  ); triplet =   F


 ** RSPCTL MICROITERATION NUMBER    1

       No.  Residual tot.,    conf., and orb.    Bnorm      Frequency 
      ----------------------------------------------------------------
         1    3.11573D+00  0.00D+00  3.12D+00  7.49D+00    0.00000D+00
         2    3.11890D+00  0.00D+00  3.12D+00  7.52D+00    2.15000D-02
         3    3.12849D+00  0.00D+00  3.13D+00  7.61D+00    4.30000D-02

 ** RSPCTL MICROITERATION NUMBER    2

       No.  Residual tot.,    conf., and orb.    Bnorm      Frequency 
      ----------------------------------------------------------------
         1    8.08667D-01  0.00D+00  8.09D-01  7.86D+00    0.00000D+00
         2    8.11015D-01  0.00D+00  8.11D-01  7.89D+00    2.15000D-02
         3    8.18166D-01  0.00D+00  8.18D-01  7.99D+00    4.30000D-02

 ** RSPCTL MICROITERATION NUMBER    3

       No.  Residual tot.,    conf., and orb.    Bnorm      Frequency 
      ----------------------------------------------------------------
         1    1.67973D-01  0.00D+00  1.68D-01  7.89D+00    0.00000D+00
         2    1.69374D-01  0.00D+00  1.69D-01  7.92D+00    2.15000D-02
         3    1.73678D-01  0.00D+00  1.74D-01  8.02D+00    4.30000D-02

 ** RSPCTL MICROITERATION NUMBER    4

       No.  Residual tot.,    conf., and orb.    Bnorm      Frequency 
      ----------------------------------------------------------------
         1    4.63441D-02  0.00D+00  4.63D-02  7.90D+00    0.00000D+00
         2    4.72899D-02  0.00D+00  4.73D-02  7.93D+00    2.15000D-02
         3    5.02987D-02  0.00D+00  5.03D-02  8.02D+00    4.30000D-02

 ** RSPCTL MICROITERATION NUMBER    5

       No.  Residual tot.,    conf., and orb.    Bnorm      Frequency 
      ----------------------------------------------------------------
         1    1.76918D-02  0.00D+00  1.77D-02  7.90D+00    0.00000D+00
         2    1.83855D-02  0.00D+00  1.84D-02  7.93D+00    2.15000D-02
         3    2.06062D-02  0.00D+00  2.06D-02  8.03D+00    4.30000D-02

 ** RSPCTL MICROITERATION NUMBER    6

       No.  Residual tot.,    conf., and orb.    Bnorm      Frequency 
      ----------------------------------------------------------------
         1    7.08578D-03  0.00D+00  7.09D-03  7.90D+00    0.00000D+00
         2    7.46695D-03  0.00D+00  7.47D-03  7.93D+00    2.15000D-02
         3    8.71223D-03  0.00D+00  8.71D-03  8.03D+00    4.30000D-02

 ** RSPCTL MICROITERATION NUMBER    7

       No.  Residual tot.,    conf., and orb.    Bnorm      Frequency 
      ----------------------------------------------------------------
         1    1.87196D-03  0.00D+00  1.87D-03  7.90D+00    0.00000D+00
         2    1.98603D-03  0.00D+00  1.99D-03  7.93D+00    2.15000D-02
         3    2.42060D-03  0.00D+00  2.42D-03  8.03D+00    4.30000D-02

 *** THE REQUESTED    3 SOLUTION VECTORS CONVERGED

 Convergence of RSP solution vectors, threshold = 1.00D-03
 ---------------------------------------------------------------
 (dimension of paired reduced space:   38)
 RSP solution vector no.    1; norm of residual   2.37D-04
 RSP solution vector no.    2; norm of residual   2.51D-04
 RSP solution vector no.    3; norm of residual   3.02D-04

 *** RSPCTL MICROITERATIONS CONVERGED

@ QRLRVE: SINGLET SOLUTION FOR SYMMETRY    1  ( A  )    LABEL   ZDIPLEN     FREQUENCY   0.000000D+00

@ QRLRVE:  << XDIPLEN  ; ZDIPLEN  >> (   0.00000):   -1.159788246674E-14

@ QRLRVE:  << YDIPLEN  ; ZDIPLEN  >> (   0.00000):    3.562228826205E-14

@ QRLRVE:  << ZDIPLEN  ; ZDIPLEN  >> (   0.00000):     89.8619839981    

@ QRLRVE: SINGLET SOLUTION FOR SYMMETRY    1  ( A  )    LABEL   ZDIPLEN     FREQUENCY   0.215000D-01

@ QRLRVE:  << XDIPLEN  ; ZDIPLEN  >> (   0.02150):   -1.320232933686E-14

@ QRLRVE:  << YDIPLEN  ; ZDIPLEN  >> (   0.02150):    3.660215134023E-14

@ QRLRVE:  << ZDIPLEN  ; ZDIPLEN  >> (   0.02150):     90.0064804898    

@ QRLRVE: SINGLET SOLUTION FOR SYMMETRY    1  ( A  )    LABEL   ZDIPLEN     FREQUENCY   0.430000D-01

@ QRLRVE:  << XDIPLEN  ; ZDIPLEN  >> (   0.04300):   -1.853876181382E-14

@ QRLRVE:  << YDIPLEN  ; ZDIPLEN  >> (   0.04300):    3.977252388230E-14

@ QRLRVE:  << ZDIPLEN  ; ZDIPLEN  >> (   0.04300):     90.4452247041    
 
 ======================================================================
 ---  L I N E A R   R E S P O N S E   F U N C T I O N S --- 
 ======================================================================

 The -<<A;B>>(omega_b) functions from vectors generated
 in a *QUADRA calculation of <<A;B,C>>(omega_b,omega_c)

 Note: the accuracy of off-diagonal elements will be linear
 in the convergence threshold THCLR =  1.00D-03


 Perturbation symmetry.     KSYMOP:           1
 Perturbation spin symmetry.TRPLET:           F
 Orbital variables.         KZWOPT:       82008
 Configuration variables.   KZCONF:           0
 Total number of variables. KZVAR :       82008

@ Singlet linear response function in a.u.

@ A operator, symmetry, frequency:   XDIPLEN    1 -0.000000
@ B operator, symmetry, frequency:   XDIPLEN    1  0.000000

@ Value of linear response -<<A;B>>(omega):     475.923933078105

@ Singlet linear response function in a.u.

@ A operator, symmetry, frequency:   YDIPLEN    1 -0.000000
@ B operator, symmetry, frequency:   XDIPLEN    1  0.000000

@ Value of linear response -<<A;B>>(omega):     198.775633169423

@ Singlet linear response function in a.u.

@ A operator, symmetry, frequency:   ZDIPLEN    1 -0.000000
@ B operator, symmetry, frequency:   XDIPLEN    1  0.000000

@ Value of linear response -<<A;B>>(omega):       0.000000000000

@ Singlet linear response function in a.u.

@ A operator, symmetry, frequency:   XDIPLEN    1 -0.021500
@ B operator, symmetry, frequency:   XDIPLEN    1  0.021500

@ Value of linear response -<<A;B>>(omega):     486.072889091221

@ Singlet linear response function in a.u.

@ A operator, symmetry, frequency:   YDIPLEN    1 -0.021500
@ B operator, symmetry, frequency:   XDIPLEN    1  0.021500

@ Value of linear response -<<A;B>>(omega):     204.497210463917

@ Singlet linear response function in a.u.

@ A operator, symmetry, frequency:   ZDIPLEN    1 -0.021500
@ B operator, symmetry, frequency:   XDIPLEN    1  0.021500

@ Value of linear response -<<A;B>>(omega):       0.000000000000

@ Singlet linear response function in a.u.

@ A operator, symmetry, frequency:   XDIPLEN    1 -0.000000
@ B operator, symmetry, frequency:   YDIPLEN    1  0.000000

@ Value of linear response -<<A;B>>(omega):     198.786689826126

@ Singlet linear response function in a.u.

@ A operator, symmetry, frequency:   YDIPLEN    1 -0.000000
@ B operator, symmetry, frequency:   YDIPLEN    1  0.000000

@ Value of linear response -<<A;B>>(omega):     240.432747816900

@ Singlet linear response function in a.u.

@ A operator, symmetry, frequency:   ZDIPLEN    1 -0.000000
@ B operator, symmetry, frequency:   YDIPLEN    1  0.000000

@ Value of linear response -<<A;B>>(omega):       0.000000000000

@ Singlet linear response function in a.u.

@ A operator, symmetry, frequency:   XDIPLEN    1 -0.021500
@ B operator, symmetry, frequency:   YDIPLEN    1  0.021500

@ Value of linear response -<<A;B>>(omega):     204.509033392331

@ Singlet linear response function in a.u.

@ A operator, symmetry, frequency:   YDIPLEN    1 -0.021500
@ B operator, symmetry, frequency:   YDIPLEN    1  0.021500

@ Value of linear response -<<A;B>>(omega):     243.991131713971

@ Singlet linear response function in a.u.

@ A operator, symmetry, frequency:   ZDIPLEN    1 -0.021500
@ B operator, symmetry, frequency:   YDIPLEN    1  0.021500

@ Value of linear response -<<A;B>>(omega):       0.000000000000

@ Singlet linear response function in a.u.

@ A operator, symmetry, frequency:   XDIPLEN    1 -0.000000
@ B operator, symmetry, frequency:   ZDIPLEN    1  0.000000

@ Value of linear response -<<A;B>>(omega):      -0.000000000000

@ Singlet linear response function in a.u.

@ A operator, symmetry, frequency:   YDIPLEN    1 -0.000000
@ B operator, symmetry, frequency:   ZDIPLEN    1  0.000000

@ Value of linear response -<<A;B>>(omega):       0.000000000000

@ Singlet linear response function in a.u.

@ A operator, symmetry, frequency:   ZDIPLEN    1 -0.000000
@ B operator, symmetry, frequency:   ZDIPLEN    1  0.000000

@ Value of linear response -<<A;B>>(omega):      89.861983998122

@ Singlet linear response function in a.u.

@ A operator, symmetry, frequency:   XDIPLEN    1 -0.021500
@ B operator, symmetry, frequency:   ZDIPLEN    1  0.021500

@ Value of linear response -<<A;B>>(omega):      -0.000000000000

@ Singlet linear response function in a.u.

@ A operator, symmetry, frequency:   YDIPLEN    1 -0.021500
@ B operator, symmetry, frequency:   ZDIPLEN    1  0.021500

@ Value of linear response -<<A;B>>(omega):       0.000000000000

@ Singlet linear response function in a.u.

@ A operator, symmetry, frequency:   ZDIPLEN    1 -0.021500
@ B operator, symmetry, frequency:   ZDIPLEN    1  0.021500

@ Value of linear response -<<A;B>>(omega):      90.006480489779


  Results from quadratic response calculation
 --------------------------------------------

@ B-freq = 0.000000  C-freq = 0.000000     beta(X;X,X) =   5289.00198587
@ B-freq = 0.000000  C-freq = 0.000000     beta(Y;X,X) =   5508.69266857
@ B-freq = 0.000000  C-freq = 0.000000     beta(Z;X,X) =     -0.00000000
@ B-freq = 0.021500  C-freq = 0.000000     beta(X;X,X) =   5678.63195249
@ B-freq = 0.021500  C-freq = 0.000000     beta(Y;X,X) =   5818.27216889
@ B-freq = 0.021500  C-freq = 0.000000     beta(Z;X,X) =     -0.00000000
@ B-freq = 0.000000  C-freq = 0.000000     beta(X;Y,X) = beta(Y,X,X)
@ B-freq = 0.000000  C-freq = 0.000000     beta(X;Y,X) =   5508.69160016
@ B-freq = 0.000000  C-freq = 0.000000     beta(Y;Y,X) =   4861.83066950
@ B-freq = 0.000000  C-freq = 0.000000     beta(Z;Y,X) =     -0.00000000
@ B-freq = 0.021500  C-freq = 0.000000     beta(X;Y,X) =   5818.27104055
@ B-freq = 0.021500  C-freq = 0.000000     beta(Y;Y,X) =   5093.97319952
@ B-freq = 0.021500  C-freq = 0.000000     beta(Z;Y,X) =     -0.00000000
@ B-freq = 0.000000  C-freq = 0.000000     beta(X;Z,X) = beta(Z,X,X)
@ B-freq = 0.000000  C-freq = 0.000000     beta(Y;Z,X) = beta(Z,Y,X)
@ B-freq = 0.000000  C-freq = 0.000000     beta(X;Z,X) =     -0.00000000
@ B-freq = 0.000000  C-freq = 0.000000     beta(Y;Z,X) =     -0.00000000
@ B-freq = 0.000000  C-freq = 0.000000     beta(Z;Z,X) =    -31.90642188
@ B-freq = 0.021500  C-freq = 0.000000     beta(X;Z,X) =     -0.00000000
@ B-freq = 0.021500  C-freq = 0.000000     beta(Y;Z,X) =     -0.00000000
@ B-freq = 0.021500  C-freq = 0.000000     beta(Z;Z,X) =    -32.53294239
@ B-freq = 0.000000  C-freq = 0.021500     beta(X;X,X) = beta(X,X,X)
@ B-freq = 0.000000  C-freq = 0.021500     beta(Y;X,X) = beta(Y,X,X)
@ B-freq = 0.000000  C-freq = 0.021500     beta(Z;X,X) = beta(Z,X,X)
@ B-freq = 0.021500  C-freq = 0.021500     beta(X;X,X) =   6578.61005453
@ B-freq = 0.021500  C-freq = 0.021500     beta(Y;X,X) =   6448.89645672
@ B-freq = 0.021500  C-freq = 0.021500     beta(Z;X,X) =     -0.00000000
@ B-freq = 0.000000  C-freq = 0.021500     beta(X;Y,X) =   5883.87377203
@ B-freq = 0.000000  C-freq = 0.021500     beta(Y;Y,X) =   5137.25786202
@ B-freq = 0.000000  C-freq = 0.021500     beta(Z;Y,X) =     -0.00000000
@ B-freq = 0.021500  C-freq = 0.021500     beta(X;Y,X) =   6673.46332009
@ B-freq = 0.021500  C-freq = 0.021500     beta(Y;Y,X) =   5667.08795981
@ B-freq = 0.021500  C-freq = 0.021500     beta(Z;Y,X) =     -0.00000000
@ B-freq = 0.000000  C-freq = 0.021500     beta(X;Z,X) =     -0.00000000
@ B-freq = 0.000000  C-freq = 0.021500     beta(Y;Z,X) =     -0.00000000
@ B-freq = 0.000000  C-freq = 0.021500     beta(Z;Z,X) =    -32.75838038
@ B-freq = 0.021500  C-freq = 0.021500     beta(X;Z,X) =     -0.00000000
@ B-freq = 0.021500  C-freq = 0.021500     beta(Y;Z,X) =     -0.00000000
@ B-freq = 0.021500  C-freq = 0.021500     beta(Z;Z,X) =    -34.08498241
@ B-freq = 0.000000  C-freq = 0.000000     beta(X;X,Y) = beta(Y,X,X)
@ B-freq = 0.000000  C-freq = 0.000000     beta(Y;X,Y) = beta(Y,Y,X)
@ B-freq = 0.000000  C-freq = 0.000000     beta(Z;X,Y) = beta(Z,Y,X)
@ B-freq = 0.021500  C-freq = 0.000000     beta(X;X,Y) = beta(X,Y,X)
@ B-freq = 0.021500  C-freq = 0.000000     beta(Y;X,Y) = beta(Y,Y,X)
@ B-freq = 0.021500  C-freq = 0.000000     beta(Z;X,Y) = beta(Z,Y,X)
@ B-freq = 0.000000  C-freq = 0.000000     beta(X;Y,Y) = beta(Y,Y,X)
@ B-freq = 0.000000  C-freq = 0.000000     beta(X;Y,Y) =   4861.83004914
@ B-freq = 0.000000  C-freq = 0.000000     beta(Y;Y,Y) =   3878.68907525
@ B-freq = 0.000000  C-freq = 0.000000     beta(Z;Y,Y) =     -0.00000000
@ B-freq = 0.021500  C-freq = 0.000000     beta(X;Y,Y) =   5137.25720734
@ B-freq = 0.021500  C-freq = 0.000000     beta(Y;Y,Y) =   4074.41068786
@ B-freq = 0.021500  C-freq = 0.000000     beta(Z;Y,Y) =     -0.00000000
@ B-freq = 0.000000  C-freq = 0.000000     beta(X;Z,Y) = beta(Z,Y,X)
@ B-freq = 0.000000  C-freq = 0.000000     beta(Y;Z,Y) = beta(Z,Y,Y)
@ B-freq = 0.000000  C-freq = 0.000000     beta(X;Z,Y) =     -0.00000000
@ B-freq = 0.000000  C-freq = 0.000000     beta(Y;Z,Y) =     -0.00000000
@ B-freq = 0.000000  C-freq = 0.000000     beta(Z;Z,Y) =    -27.32659238
@ B-freq = 0.021500  C-freq = 0.000000     beta(X;Z,Y) =     -0.00000000
@ B-freq = 0.021500  C-freq = 0.000000     beta(Y;Z,Y) =     -0.00000000
@ B-freq = 0.021500  C-freq = 0.000000     beta(Z;Z,Y) =    -27.74770256
@ B-freq = 0.000000  C-freq = 0.021500     beta(X;X,Y) = beta(X,Y,X)
@ B-freq = 0.000000  C-freq = 0.021500     beta(Y;X,Y) = beta(Y,Y,X)
@ B-freq = 0.000000  C-freq = 0.021500     beta(Z;X,Y) = beta(Z,Y,X)
@ B-freq = 0.021500  C-freq = 0.021500     beta(X;X,Y) = beta(X,Y,X)
@ B-freq = 0.021500  C-freq = 0.021500     beta(Y;X,Y) = beta(Y,Y,X)
@ B-freq = 0.021500  C-freq = 0.021500     beta(Z;X,Y) = beta(Z,Y,X)
@ B-freq = 0.000000  C-freq = 0.021500     beta(X;Y,Y) = beta(X,Y,Y)
@ B-freq = 0.000000  C-freq = 0.021500     beta(Y;Y,Y) = beta(Y,Y,Y)
@ B-freq = 0.000000  C-freq = 0.021500     beta(Z;Y,Y) = beta(Z,Y,Y)
@ B-freq = 0.021500  C-freq = 0.021500     beta(X;Y,Y) =   5815.46788713
@ B-freq = 0.021500  C-freq = 0.021500     beta(Y;Y,Y) =   4517.79424357
@ B-freq = 0.021500  C-freq = 0.021500     beta(Z;Y,Y) =     -0.00000000
@ B-freq = 0.000000  C-freq = 0.021500     beta(X;Z,Y) =     -0.00000000
@ B-freq = 0.000000  C-freq = 0.021500     beta(Y;Z,Y) =     -0.00000000
@ B-freq = 0.000000  C-freq = 0.021500     beta(Z;Z,Y) =    -27.87510105
@ B-freq = 0.021500  C-freq = 0.021500     beta(X;Z,Y) =     -0.00000000
@ B-freq = 0.021500  C-freq = 0.021500     beta(Y;Z,Y) =     -0.00000000
@ B-freq = 0.021500  C-freq = 0.021500     beta(Z;Z,Y) =    -28.76150850
@ B-freq = 0.000000  C-freq = 0.000000     beta(X;X,Z) = beta(Z,X,X)
@ B-freq = 0.000000  C-freq = 0.000000     beta(Y;X,Z) = beta(Z,Y,X)
@ B-freq = 0.000000  C-freq = 0.000000     beta(Z;X,Z) = beta(Z,Z,X)
@ B-freq = 0.021500  C-freq = 0.000000     beta(X;X,Z) = beta(X,Z,X)
@ B-freq = 0.021500  C-freq = 0.000000     beta(Y;X,Z) = beta(Y,Z,X)
@ B-freq = 0.021500  C-freq = 0.000000     beta(Z;X,Z) = beta(Z,Z,X)
@ B-freq = 0.000000  C-freq = 0.000000     beta(X;Y,Z) = beta(Z,Y,X)
@ B-freq = 0.000000  C-freq = 0.000000     beta(Y;Y,Z) = beta(Z,Y,Y)
@ B-freq = 0.000000  C-freq = 0.000000     beta(Z;Y,Z) = beta(Z,Z,Y)
@ B-freq = 0.021500  C-freq = 0.000000     beta(X;Y,Z) = beta(X,Z,Y)
@ B-freq = 0.021500  C-freq = 0.000000     beta(Y;Y,Z) = beta(Y,Z,Y)
@ B-freq = 0.021500  C-freq = 0.000000     beta(Z;Y,Z) = beta(Z,Z,Y)
@ B-freq = 0.000000  C-freq = 0.000000     beta(X;Z,Z) = beta(Z,Z,X)
@ B-freq = 0.000000  C-freq = 0.000000     beta(Y;Z,Z) = beta(Z,Z,Y)
@ B-freq = 0.000000  C-freq = 0.000000     beta(X;Z,Z) =    -31.90641635
@ B-freq = 0.000000  C-freq = 0.000000     beta(Y;Z,Z) =    -27.32658533
@ B-freq = 0.000000  C-freq = 0.000000     beta(Z;Z,Z) =     -0.00000000
@ B-freq = 0.021500  C-freq = 0.000000     beta(X;Z,Z) =    -32.75837431
@ B-freq = 0.021500  C-freq = 0.000000     beta(Y;Z,Z) =    -27.87509362
@ B-freq = 0.021500  C-freq = 0.000000     beta(Z;Z,Z) =     -0.00000000
@ B-freq = 0.000000  C-freq = 0.021500     beta(X;X,Z) = beta(X,Z,X)
@ B-freq = 0.000000  C-freq = 0.021500     beta(Y;X,Z) = beta(Y,Z,X)
@ B-freq = 0.000000  C-freq = 0.021500     beta(Z;X,Z) = beta(Z,Z,X)
@ B-freq = 0.021500  C-freq = 0.021500     beta(X;X,Z) = beta(X,Z,X)
@ B-freq = 0.021500  C-freq = 0.021500     beta(Y;X,Z) = beta(Y,Z,X)
@ B-freq = 0.021500  C-freq = 0.021500     beta(Z;X,Z) = beta(Z,Z,X)
@ B-freq = 0.000000  C-freq = 0.021500     beta(X;Y,Z) = beta(X,Z,Y)
@ B-freq = 0.000000  C-freq = 0.021500     beta(Y;Y,Z) = beta(Y,Z,Y)
@ B-freq = 0.000000  C-freq = 0.021500     beta(Z;Y,Z) = beta(Z,Z,Y)
@ B-freq = 0.021500  C-freq = 0.021500     beta(X;Y,Z) = beta(X,Z,Y)
@ B-freq = 0.021500  C-freq = 0.021500     beta(Y;Y,Z) = beta(Y,Z,Y)
@ B-freq = 0.021500  C-freq = 0.021500     beta(Z;Y,Z) = beta(Z,Z,Y)
@ B-freq = 0.000000  C-freq = 0.021500     beta(X;Z,Z) = beta(X,Z,Z)
@ B-freq = 0.000000  C-freq = 0.021500     beta(Y;Z,Z) = beta(Y,Z,Z)
@ B-freq = 0.000000  C-freq = 0.021500     beta(Z;Z,Z) = beta(Z,Z,Z)
@ B-freq = 0.021500  C-freq = 0.021500     beta(X;Z,Z) =    -34.89665908
@ B-freq = 0.021500  C-freq = 0.021500     beta(Y;Z,Z) =    -29.22126146
@ B-freq = 0.021500  C-freq = 0.021500     beta(Z;Z,Z) =     -0.00000000

  Total CPU  time used in RESPONSE:   6 hours 23 minutes 38 seconds
  Total wall time used in RESPONSE:   6 hours 25 minutes 38 seconds


                   .-------------------------------------------.
                   | End of Dynamic Property Section (RESPONS) |
                   `-------------------------------------------'

  Total CPU  time used in DALTON:   8 hours  1 minute  10 seconds
  Total wall time used in DALTON:   8 hours  3 minutes 35 seconds

 
     Date and time (Linux)  : Sat May 10 02:03:12 2025
     Host name              : xm046                                   
