

     ************************************************************************
     *************** Dalton - An Electronic Structure Program ***************
     ************************************************************************

    This is output from DALTON release Dalton2020.0 (2020)
         ( Web site: http://daltonprogram.org )

   ----------------------------------------------------------------------------

    NOTE:
     
    Dalton is an experimental code for the evaluation of molecular
    properties using (MC)SCF, DFT, CI, and CC wave functions.
    The authors accept no responsibility for the performance of
    the code or for the correctness of the results.
     
    The code (in whole or part) is provided under a licence and
    is not to be reproduced for further distribution without
    the written permission of the authors or their representatives.
     
    See the home page "http://daltonprogram.org" for further information.
     
    If results obtained with this code are published,
    the appropriate citations would be both of:
     
       K. Aidas, C. Angeli, K. L. Bak, V. Bakken, R. Bast,
       L. Boman, O. Christiansen, R. Cimiraglia, S. Coriani,
       P. Dahle, E. K. Dalskov, U. Ekstroem,
       T. Enevoldsen, J. J. Eriksen, P. Ettenhuber, B. Fernandez,
       L. Ferrighi, H. Fliegl, L. Frediani, K. Hald, A. Halkier,
       C. Haettig, H. Heiberg, T. Helgaker, A. C. Hennum,
       H. Hettema, E. Hjertenaes, S. Hoest, I.-M. Hoeyvik,
       M. F. Iozzi, B. Jansik, H. J. Aa. Jensen, D. Jonsson,
       P. Joergensen, J. Kauczor, S. Kirpekar,
       T. Kjaergaard, W. Klopper, S. Knecht, R. Kobayashi, H. Koch,
       J. Kongsted, A. Krapp, K. Kristensen, A. Ligabue,
       O. B. Lutnaes, J. I. Melo, K. V. Mikkelsen, R. H. Myhre,
       C. Neiss, C. B. Nielsen, P. Norman, J. Olsen,
       J. M. H. Olsen, A. Osted, M. J. Packer, F. Pawlowski,
       T. B. Pedersen, P. F. Provasi, S. Reine, Z. Rinkevicius,
       T. A. Ruden, K. Ruud, V. Rybkin, P. Salek, C. C. M. Samson,
       A. Sanchez de Meras, T. Saue, S. P. A. Sauer,
       B. Schimmelpfennig, K. Sneskov, A. H. Steindal,
       K. O. Sylvester-Hvid, P. R. Taylor, A. M. Teale,
       E. I. Tellgren, D. P. Tew, A. J. Thorvaldsen, L. Thoegersen,
       O. Vahtras, M. A. Watson, D. J. D. Wilson, M. Ziolkowski
       and H. Agren,
       "The Dalton quantum chemistry program system",
       WIREs Comput. Mol. Sci. 2014, 4:269–284 (doi: 10.1002/wcms.1172)
     
    and
     
       Dalton, a molecular electronic structure program,
       Release Dalton2020.0 (2020), see http://daltonprogram.org
   ----------------------------------------------------------------------------

    Authors in alphabetical order (Major contribution(s) in parenthesis):

  Kestutis Aidas,           Vilnius University,           Lithuania   (QM/MM)
  Celestino Angeli,         University of Ferrara,        Italy       (NEVPT2)
  Keld L. Bak,              UNI-C,                        Denmark     (AOSOPPA, non-adiabatic coupling, magnetic properties)
  Vebjoern Bakken,          University of Oslo,           Norway      (DALTON; geometry optimizer, symmetry detection)
  Radovan Bast,             UiT The Arctic U. of Norway,  Norway      (DALTON installation and execution frameworks)
  Pablo Baudin,             University of Valencia,       Spain       (Cholesky excitation energies)
  Linus Boman,              NTNU,                         Norway      (Cholesky decomposition and subsystems)
  Bruno N. Cabral Tenorio,  Technical Univ. of Denmark,   Denmark     (Lanczos-based CC methods)
  Ove Christiansen,         Aarhus University,            Denmark     (CC module)
  Renzo Cimiraglia,         University of Ferrara,        Italy       (NEVPT2)
  Sonia Coriani,            Technical Univ. of Denmark,   Denmark     (CC and RESPONS modules)
  Janusz Cukras,            University of Warsaw,         Poland      (MChD in RESPONS)
  Paal Dahle,               University of Oslo,           Norway      (Parallelization)
  Erik K. Dalskov,          UNI-C,                        Denmark     (SOPPA)
  Thomas Enevoldsen,        Univ. of Southern Denmark,    Denmark     (SOPPA)
  Janus J. Eriksen,         Aarhus University,            Denmark     (Polarizable embedding, TDA)
  Rasmus Faber,             Technical Univ. of Denmark,   Denmark     (Vib.avg. NMR w. SOPPA, parallel AO-SOPPA, CVS-CC and EOMCC)
  Tobias Fahleson,          KTH Stockholm,                Sweden      (Damped cubic response)
  Berta Fernandez,          U. of Santiago de Compostela, Spain       (Doublet spin, ESR in RESPONS)
  Lara Ferrighi,            Aarhus University,            Denmark     (PCM Cubic response)
  Heike Fliegl,             University of Oslo,           Norway      (CCSD(R12))
  Luca Frediani,            UiT The Arctic U. of Norway,  Norway      (PCM)
  Emmanuel Fromager,        Univ. Strasbourg,             France      (MC-srDFT)
  Bin Gao,                  UiT The Arctic U. of Norway,  Norway      (Gen1Int library)
  Andre S. P. Gomes,        CNRS/Universite de Lille,     France      (Frozen density embedding)
  Christof Haettig,         Ruhr-University Bochum,       Germany     (CC module)
  Kasper Hald,              Aarhus University,            Denmark     (CC module)
  Asger Halkier,            Aarhus University,            Denmark     (CC module)
  Frederik Beyer Hansen,    University of Copenhagen,     Denmark     (Parallel AO-SOPPA)
  Erik D. Hedegaard,        Univ. of Southern Denmark,    Denmark     (Polarizable embedding, QM/MM, and MC-srDFT)
  Hanne Heiberg,            University of Oslo,           Norway      (Geometry analysis, selected one-electron integrals)
  Trygve Helgaker,          University of Oslo,           Norway      (DALTON; ABACUS, ERI, DFT modules, London, and much more)
  Alf Christian Hennum,     University of Oslo,           Norway      (Parity violation)
  Hinne Hettema,            University of Auckland,       New Zealand (Quadratic response in RESPONS; SIRIUS supersymmetry)
  Eirik Hjertenaes,         NTNU,                         Norway      (Cholesky decomposition)
  Pi A. B. Haase,           University of Copenhagen,     Denmark     (Triplet AO-SOPPA)
  Maria Francesca Iozzi,    University of Oslo,           Norway      (RPA)
  Christoph Jacob           TU Braunschweig               Germany     (Frozen density embedding)
  Brano Jansik              Technical Univ. of Ostrava    Czech Rep.  (DFT cubic response)
  Hans Joergen Aa. Jensen,  Univ. of Southern Denmark,    Denmark     (DALTON; SIRIUS, RESPONS, ABACUS, MC-srDFT, and much more)
  Dan Jonsson,              UiT The Arctic U. of Norway,  Norway      (Cubic response in RESPONS module)
  Poul Joergensen,          Aarhus University,            Denmark     (RESPONS, ABACUS, and CC modules)
  Maciej Kaminski,          University of Warsaw,         Poland      (CPPh in RESPONS)
  Joanna Kauczor,           Linkoeping University,        Sweden      (Complex polarization propagator (CPP) module)
  Sheela Kirpekar,          Univ. of Southern Denmark,    Denmark     (Mass-velocity & Darwin integrals)
  Erik Kjellgren,           Univ. of Southern Denmark,    Denmark     (MC-srDFT)
  Wim Klopper,              KIT Karlsruhe,                Germany     (R12 code in CC, SIRIUS, and ABACUS modules)
  Stefan Knecht,            ETH Zurich,                   Switzerland (Parallel CI and MCSCF, MC-srDFT)
  Rika Kobayashi,           Australian National Univ.,    Australia   (DIIS in CC, London in MCSCF)
  Henrik Koch,              NTNU,                         Norway      (CC module, Cholesky decomposition)
  Jacob Kongsted,           Univ. of Southern Denmark,    Denmark     (Polarizable embedding, polarizable density embedding, QM/MM)
  Andrea Ligabue,           University of Modena,         Italy       (CTOCD, AOSOPPA)
  Nanna H. List             Univ. of Southern Denmark,    Denmark     (Polarizable embedding)
  Ola B. Lutnaes,           University of Oslo,           Norway      (DFT Hessian)
  Juan I. Melo,             University of Buenos Aires,   Argentina   (LRESC, Relativistic Effects on NMR Shieldings)
  Kurt V. Mikkelsen,        University of Copenhagen,     Denmark     (MC-SCRF and QM/MM)
  Rolf H. Myhre,            NTNU,                         Norway      (Subsystems and CC3)
  Christian Neiss,          Univ. Erlangen-Nuernberg,     Germany     (CCSD(R12))
  Christian B. Nielsen,     University of Copenhagen,     Denmark     (QM/MM)
  Patrick Norman,           KTH Stockholm,                Sweden      (Cubic response and complex frequency response in RESPONS)
  Jeppe Olsen,              Aarhus University,            Denmark     (SIRIUS CI/density modules)
  Jogvan Magnus H. Olsen,   Aarhus University,            Denmark     (Polarizable embedding and polarizable density embedding)
  Anders Osted,             Copenhagen University,        Denmark     (QM/MM)
  Martin J. Packer,         University of Sheffield,      UK          (SOPPA)
  Filip Pawlowski,          Kazimierz Wielki University,  Poland      (CC3)
  Morten N. Pedersen,       Univ. of Southern Denmark,    Denmark     (Polarizable embedding)
  Thomas B. Pedersen,       University of Oslo,           Norway      (Cholesky decomposition)
  Patricio F. Provasi,      University of Northeastern,   Argentina   (Analysis of coupling constants in localized orbitals)
  Peter Reinholdt,          Univ. of Southern Denmark,    Denmark     (Polarizable embedding and polarizable density embedding)
  Zilvinas Rinkevicius,     KTH Stockholm,                Sweden      (open-shell DFT, ESR)
  Elias Rudberg,            KTH Stockholm,                Sweden      (DFT grid and basis info)
  Torgeir A. Ruden,         University of Oslo,           Norway      (Numerical derivatives in ABACUS)
  Kenneth Ruud,             UiT The Arctic U. of Norway,  Norway      (DALTON; ABACUS magnetic properties and much more)
  Pawel Salek,              KTH Stockholm,                Sweden      (DALTON; DFT code)
  Claire C. M. Samson       University of Karlsruhe       Germany     (Boys localization, r12 integrals in ERI)
  Alfredo Sanchez de Meras, University of Valencia,       Spain       (CC module, Cholesky decomposition)
  Trond Saue,               Paul Sabatier University,     France      (direct Fock matrix construction)
  Stephan P. A. Sauer,      University of Copenhagen,     Denmark     (SOPPA(CCSD), SOPPA prop., AOSOPPA, vibrational g-factors)
  Bernd Schimmelpfennig,    Forschungszentrum Karlsruhe,  Germany     (AMFI module)
  Anna K. Schnack-Petersen, University of Copenhagen,     Denmark     (RPA(D) and HRPA(D) properties in AOSOPPA)
  Kristian Sneskov,         Aarhus University,            Denmark     (Polarizable embedding, QM/MM)
  Arnfinn H. Steindal,      UiT The Arctic U. of Norway,  Norway      (parallel QM/MM, polarizable embedding)
  Casper Steinmann,         Aalborg University,           Denmark     (QFIT, polarizable embedding)
  K. O. Sylvester-Hvid,     University of Copenhagen,     Denmark     (MC-SCRF)
  Peter R. Taylor,          VLSCI/Univ. of Melbourne,     Australia   (Symmetry handling ABACUS, integral transformation)
  Andrew M. Teale,          University of Nottingham,     England     (DFT-AC, DFT-D)
  David P. Tew,             University of Bristol,        England     (CCSD(R12))
  Julien Toulouse,          Sorbonne Univ.,               France      (MC-srDFT)
  Olav Vahtras,             KTH Stockholm,                Sweden      (Triplet response, spin-orbit, ESR, TDDFT, open-shell DFT)
  Lucas Visscher,           Vrije Universiteit Amsterdam, Netherlands (Frozen density embedding)
  David J. Wilson,          La Trobe University,          Australia   (DFT Hessian and DFT magnetizabilities)
  Hans Agren,               KTH Stockholm,                Sweden      (SIRIUS module, RESPONS, MC-SCRF solvation)
 --------------------------------------------------------------------------------

     Date and time (Linux)  : Sat May 10 02:03:34 2025
     Host name              : xm046                                   

 * Work memory size             :  1310720000 =  9.766 gigabytes.

 * Directories for basis set searches:
   1) /gpfs/projects/rjh/adrian/summer2025/beta_projects/raw_data/NLO/dalton/hf/n5/dipole
   2) /gpfs/projects/rjh/adrian/dalton/build/basis


Compilation information
-----------------------

 Who compiled             | ahurtado
 Host                     | milan2
 System                   | Linux-5.14.0-427.42.1.el9_4.x86_64
 CMake generator          | Unix Makefiles
 Processor                | x86_64
 64-bit integers          | OFF
 MPI                      | ON
 Fortran compiler         | /gpfs/software/openmpi/milan/gcc13.2/4.1.6/bin/mpi
                          | f90
 Fortran compiler version | GNU Fortran (GCC) 13.2.0
 C compiler               | /gpfs/software/openmpi/milan/gcc13.2/4.1.6/bin/mpi
                          | cc
 C compiler version       | gcc (GCC) 13.2.0
 C++ compiler             | /gpfs/software/openmpi/milan/gcc13.2/4.1.6/bin/mpi
                          | cxx
 C++ compiler version     | unknown
 BLAS                     | /gpfs/software/intel/oneAPI/2024_2/mkl/2024.2/lib/
                          | intel64/libmkl_gf_lp64.so;/gpfs/software/intel/one
                          | API/2024_2/mkl/2024.2/lib/intel64/libmkl_sequentia
                          | l.so;/gpfs/software/intel/oneAPI/2024_2/mkl/2024.2
                          | /lib/intel64/libmkl_core.so;/usr/lib64/libpthread.
                          | a;/usr/lib64/libm.so
 LAPACK                   | /gpfs/software/intel/oneAPI/2024_2/mkl/2024.2/lib/
                          | intel64/libmkl_lapack95_lp64.a;/gpfs/software/inte
                          | l/oneAPI/2024_2/mkl/2024.2/lib/intel64/libmkl_gf_l
                          | p64.so
 Static linking           | OFF
 Last Git revision        | 66052b3af5ea7225e31178bf9a8b031913c72190
 Git branch               | (HEAD detached at Dalton2020.0)
 Configuration time       | 2025-04-10 16:02:31.569498

 * MPI parallel run using 96 processes.


   Content of the .dal input file
 ----------------------------------

**DALTON INPUT
.RUN RESPONSE
.DIRECT
**WAVE FUNCTIONS
.HF
**PROPERTIES
**RESPONSE
*QUADRA
.DIPLEN
.FREQUENCIES
2
0.0 0.0215
**END OF DALTON INPUT


   Content of the .mol file
 ----------------------------

BASIS
d-aug-cc-pVDZ
blah
blah
Atomtype=4 Angstrom Charge=0 Nosymmetry
Charge=6 Atoms=10
C_a 5.536066998843778 3.466402999753725 0.0
C_b 4.166369001271292 3.4392500015976735 0.0
C_c 3.4276169984318443 2.20278399812645 0.0
C_d 2.058811997985908 2.096950000646235 0.0
C_e 1.365670001188536 0.8343780025891309 0.0
C_f 0.0 0.6914970018120553 0.0
C_g -0.6598629998290869 -0.5899810004107818 0.0
C_h -2.019472001042177 -0.7625100010991812 0.0
C_i -2.635186000190127 -2.070242998335108 0.0
C_j -3.974355002463877 -2.2666549995239453 0.0
Charge=7 Atoms=2
N_a 6.321381997672225 4.585279000628057 0.0
N_b -4.538794000068139 -3.610130001429271 0.0
Charge=8 Atoms=2
O_a -3.7757759994302575 -4.579172999422615 0.0
O_b -5.7747340013919555 -3.670131997735762 0.0
Charge=1 Atoms=12
H_a 6.093148999149485 2.5210970022683954 0.0
H_b 3.6069480006520194 4.384473997782438 0.0
H_c 5.909042998119462 5.508340002167312 0.0
H_d 7.3272380020916446 4.514706001608058 0.0
H_e 4.014154002428372 1.2707440023448995 0.0
H_f 1.453018002455127 3.0142559989321143 0.0
H_g 1.9828259976520177 -0.07723600157384668 0.0
H_h -0.6296780014679194 1.592591000069318 0.0
H_i -0.02111300122409742 -1.4859380003119211 0.0
H_j -2.6721639987787165 0.12098999792607903 0.0
H_k -1.992137997821215 -2.958866999124197 0.0
H_l -4.7392729980013515 -1.4879950020899213 0.0


       *******************************************************************
       *********** Output from DALTON general input processing ***********
       *******************************************************************

 --------------------------------------------------------------------------------
   Overall default print level:    0
   Print level for DALTON.STAT:    1

    Parallel calculation using MPI
    AO-direct calculation (in sections where implemented)
    HERMIT 1- and 2-electron integral sections will be executed
    "Old" integral transformation used (limited to max 255 basis functions)
    Wave function sections will be executed (SIRIUS module)
    Dynamic molecular response properties section will be executed (RESPONSE module)
 --------------------------------------------------------------------------------


   ****************************************************************************
   *************** Output of molecule and basis set information ***************
   ****************************************************************************


    The two title cards from your ".mol" input:
    ------------------------------------------------------------------------
 1: blah                                                                    
 2: blah                                                                    
    ------------------------------------------------------------------------

  Coordinates are entered in Angstrom and converted to atomic units.
          - Conversion factor : 1 bohr = 0.52917721 A

  Atomic type no.    1
  --------------------
  Nuclear charge:   6.00000
  Number of symmetry independent centers:   10
  Number of basis sets to read;    2
  Basis set file used for this atomic type with Z =   6 :
     "/gpfs/projects/rjh/adrian/dalton/build/basis/aug-cc-pVDZ"

  Atomic type no.    2
  --------------------
  Nuclear charge:   7.00000
  Number of symmetry independent centers:    2
  Number of basis sets to read;    2
  Basis set file used for this atomic type with Z =   7 :
     "/gpfs/projects/rjh/adrian/dalton/build/basis/aug-cc-pVDZ"

  Atomic type no.    3
  --------------------
  Nuclear charge:   8.00000
  Number of symmetry independent centers:    2
  Number of basis sets to read;    2
  Basis set file used for this atomic type with Z =   8 :
     "/gpfs/projects/rjh/adrian/dalton/build/basis/aug-cc-pVDZ"

  Atomic type no.    4
  --------------------
  Nuclear charge:   1.00000
  Number of symmetry independent centers:   12
  Number of basis sets to read;    2
  Basis set file used for this atomic type with Z =   1 :
     "/gpfs/projects/rjh/adrian/dalton/build/basis/aug-cc-pVDZ"


                         SYMGRP: Point group information
                         -------------------------------

@    Point group: C1 


                                 Isotopic Masses
                                 ---------------

                           C_a        12.000000
                           C_b        12.000000
                           C_c        12.000000
                           C_d        12.000000
                           C_e        12.000000
                           C_f        12.000000
                           C_g        12.000000
                           C_h        12.000000
                           C_i        12.000000
                           C_j        12.000000
                           N_a        14.003074
                           N_b        14.003074
                           O_a        15.994915
                           O_b        15.994915
                           H_a         1.007825
                           H_b         1.007825
                           H_c         1.007825
                           H_d         1.007825
                           H_e         1.007825
                           H_f         1.007825
                           H_g         1.007825
                           H_h         1.007825
                           H_i         1.007825
                           H_j         1.007825
                           H_k         1.007825
                           H_l         1.007825

                       Total mass:   192.089878 amu
                       Natural abundance:  88.282 %

 Center-of-mass coordinates (a.u.):   -0.197924   -0.164682    0.000000
 Center-of-mass coordinates (Angs):   -0.104737   -0.087146    0.000000


  Atoms and basis sets
  --------------------

  Number of atom types :    4
  Total number of atoms:   26

  Basis set used is "d-aug-cc-pVDZ" from the basis set library.

  label    atoms   charge   prim   cont     basis
  ----------------------------------------------------------------------
  C_         10    6.0000    44    32      [11s6p3d|5s4p3d]                                   
  N_          2    7.0000    44    32      [11s6p3d|5s4p3d]                                   
  O_          2    8.0000    44    32      [11s6p3d|5s4p3d]                                   
  H_         12    1.0000    15    13      [6s3p|4s3p]                                        
  ----------------------------------------------------------------------
  total:     26  102.0000   796   604
  ----------------------------------------------------------------------
  Spherical harmonic basis used.

  Threshold for neglecting AO integrals:  1.00D-12

  Max    interatomic separation is   15.4484 Angstrom (   29.1933 Bohr)
  between atoms   18 and   14, "H_d   " and "O_b   ".

  Min HX interatomic separation is    1.0083 Angstrom (    1.9055 Bohr)

  Min YX interatomic separation is    1.2334 Angstrom (    2.3308 Bohr)


  Bond distances (Angstrom):
  --------------------------

                  atom 1     atom 2       distance
                  ------     ------       --------
  bond distance:  C_b        C_a          1.369967
  bond distance:  C_c        C_b          1.440348
  bond distance:  C_d        C_c          1.372890
  bond distance:  C_e        C_d          1.440324
  bond distance:  C_f        C_e          1.373124
  bond distance:  C_g        C_f          1.441390
  bond distance:  C_h        C_g          1.370512
  bond distance:  C_i        C_h          1.445430
  bond distance:  C_j        C_i          1.353496
  bond distance:  N_a        C_a          1.366969
  bond distance:  N_b        C_j          1.457229
  bond distance:  O_a        N_b          1.233386
  bond distance:  O_b        N_b          1.237396
  bond distance:  H_a        C_a          1.097244
  bond distance:  H_b        C_b          1.098363
  bond distance:  H_c        N_a          1.010972
  bond distance:  H_d        N_a          1.008329
  bond distance:  H_e        C_c          1.101238
  bond distance:  H_f        C_d          1.099289
  bond distance:  H_g        C_e          1.100873
  bond distance:  H_h        C_f          1.099302
  bond distance:  H_i        C_g          1.100337
  bond distance:  H_j        C_h          1.098444
  bond distance:  H_k        C_i          1.096888
  bond distance:  H_l        C_j          1.091518


  Bond angles (degrees):
  ----------------------

                  atom 1     atom 2     atom 3         angle
                  ------     ------     ------         -----
  bond angle:     C_b        C_a        N_a          126.200
  bond angle:     C_b        C_a        H_a          119.376
  bond angle:     N_a        C_a        H_a          114.424
  bond angle:     C_a        C_b        C_c          121.993
  bond angle:     C_a        C_b        H_b          119.483
  bond angle:     C_c        C_b        H_b          118.524
  bond angle:     C_b        C_c        C_d          125.278
  bond angle:     C_b        C_c        H_e          116.961
  bond angle:     C_d        C_c        H_e          117.761
  bond angle:     C_c        C_d        C_e          123.188
  bond angle:     C_c        C_d        H_f          119.020
  bond angle:     C_e        C_d        H_f          117.793
  bond angle:     C_d        C_e        C_f          124.739
  bond angle:     C_d        C_e        H_g          117.136
  bond angle:     C_f        C_e        H_g          118.125
  bond angle:     C_e        C_f        C_g          123.218
  bond angle:     C_e        C_f        H_h          118.973
  bond angle:     C_g        C_f        H_h          117.809
  bond angle:     C_f        C_g        C_h          124.477
  bond angle:     C_f        C_g        H_i          117.269
  bond angle:     C_h        C_g        H_i          118.254
  bond angle:     C_g        C_h        C_i          122.444
  bond angle:     C_g        C_h        H_j          119.223
  bond angle:     C_i        C_h        H_j          118.332
  bond angle:     C_h        C_i        C_j          123.556
  bond angle:     C_h        C_i        H_k          118.897
  bond angle:     C_j        C_i        H_k          117.547
  bond angle:     C_i        C_j        N_b          121.133
  bond angle:     C_i        C_j        H_l          126.146
  bond angle:     N_b        C_j        H_l          112.721
  bond angle:     C_a        N_a        H_c          120.865
  bond angle:     C_a        N_a        H_d          121.051
  bond angle:     H_c        N_a        H_d          118.084
  bond angle:     C_j        N_b        O_a          118.994
  bond angle:     C_j        N_b        O_b          115.568
  bond angle:     O_a        N_b        O_b          125.437




 Principal moments of inertia (u*A**2) and principal axes
 --------------------------------------------------------

   IA      79.412402          0.801134    0.598486    0.000000
   IB    4506.972239         -0.598486    0.801134    0.000000
   IC    4586.384642          0.000000    0.000000    1.000000


 Rotational constants
 --------------------

@    The molecule is planar.

               A                   B                   C

           6363.9808            112.1327            110.1912 MHz
            0.212280            0.003740            0.003676 cm-1


@  Nuclear repulsion energy :  704.495638200713 Hartree


                     .---------------------------------------.
                     | Starting in Integral Section (HERMIT) |
                     `---------------------------------------'



 ***************************************************************************************
 ****************** Output from **INTEGRALS input processing (HERMIT) ******************
 ***************************************************************************************


 - Using defaults, no **INTEGRALS input found

 Default print level:        1

 Calculation of one-electron Hamiltonian integrals.

 Center of mass  (bohr):     -0.197923758795     -0.164681770665      0.000000000000
 Operator center (bohr):      0.000000000000      0.000000000000      0.000000000000
 Gauge origin    (bohr):      0.000000000000      0.000000000000      0.000000000000
 Dipole origin   (bohr):      0.000000000000      0.000000000000      0.000000000000


     ************************************************************************
     ************************** Output from HERINT **************************
     ************************************************************************



                      Nuclear contribution to dipole moments
                      --------------------------------------

                 au               Debye          C m (/(10**-30)

      x     -0.00000010        -0.00000025        -0.00000085
      y      0.00000576         0.00001464         0.00004884
      z      0.00000000         0.00000000         0.00000000


  Time used in ONEDRV     is       0.73 seconds
  Time used in HUCKEL     is       0.21 seconds
  Time used in OVERLAP    is       0.11 seconds
  Time used in POPOVLP    is       0.21 seconds
  Time used in R2         is       0.13 seconds
  Time used in R4         is       0.16 seconds
  Time used in DIPLEN     is       0.14 seconds
  Time used in QUADRUP    is       0.28 seconds
  Time used in KINENE     is       0.20 seconds
  Time used in GABGEN     is       0.79 seconds
  Total CPU  time used in HERMIT:   2.95 seconds
  Total wall time used in HERMIT:   3.21 seconds


                        .----------------------------------.
                        | End of Integral Section (HERMIT) |
                        `----------------------------------'



                   .--------------------------------------------.
                   | Starting in Wave Function Section (SIRIUS) |
                   `--------------------------------------------'



@ Primary orbitals are deleted during canonical orthonormalization
@   because of detected numerical linear dependence or too large coefficients.
@ Eigenvalue threshold for num. lin. dep. =  1.00D-06

@  28 MO components are deleted in symmetry    1
 Overlap eigenvalues of the deleted orbitals:
  9.10D-07  7.76D-07  5.48D-07  5.07D-07  4.72D-07
  4.46D-07  4.17D-07  3.09D-07  2.94D-07  2.44D-07
  2.15D-07  1.86D-07  1.62D-07  1.30D-07  8.60D-08
  7.01D-08  5.56D-08  4.77D-08  3.25D-08  2.75D-08
  2.42D-08  2.01D-08  1.36D-08  1.01D-08  6.94D-09
  6.50D-09  5.85D-09  5.13D-09

 Max MO coeff. of last deleted MO & limit:  2.48D+02  1.00D+03

WARNING: Orbitals have been deleted because of numerical
   linear dependence although not requested in input.

 *** Output from Huckel module :

     Using EWMO model:          T
     Using EHT  model:          F
     Number of Huckel orbitals each symmetry:   82

 EWMO - Energy Weighted Maximum Overlap - is a Huckel type method,
        which normally is better than Extended Huckel Theory.
 Reference: Linderberg and Ohrn, Propagators in Quantum Chemistry (Wiley, 1973)

 Huckel EWMO eigenvalues for symmetry :  1
          -20.684752     -20.683486     -15.677076     -15.674980     -11.359150
          -11.359082     -11.357769     -11.355196     -11.352150     -11.348123
          -11.346555     -11.345641     -11.345362     -11.345302      -1.964108
           -1.790031      -1.759034      -1.671445      -1.525369      -1.443608
           -1.340444      -1.181714      -1.160221      -1.085520      -0.995412
           -0.953581      -0.870160      -0.851985      -0.834962      -0.764582
           -0.761079      -0.727823      -0.693657      -0.681100      -0.645373
           -0.609220      -0.604855      -0.585238      -0.567776      -0.544141
           -0.521521      -0.520574      -0.505517      -0.494077      -0.484879
           -0.480611      -0.479444      -0.440146      -0.431877      -0.379599
           -0.376175      -0.334309      -0.281433      -0.244876      -0.229171
           -0.219702      -0.204256      -0.201181      -0.196150      -0.190466
           -0.166430      -0.142758      -0.138473      -0.131883      -0.129974
           -0.129105      -0.128790      -0.128093      -0.126029      -0.125571
           -0.124564      -0.123333      -0.109572      -0.106318      -0.100422
           -0.095501      -0.091917      -0.088850      -0.086677      -0.085099
           -0.082161      -0.079656

 **********************************************************************
 *SIRIUS* a direct, restricted step, second order MCSCF program       *
 **********************************************************************

 
     Date and time (Linux)  : Sat May 10 02:03:48 2025
     Host name              : xm046                                   

 Title lines from ".mol" input file:
     blah                                                                    
     blah                                                                    

 Print level on unit LUPRI =   2 is   0
 Print level on unit LUW4  =   2 is   5

@    Restricted, closed shell Hartree-Fock calculation.

@    Time-dependent Hartree-Fock calculation (random phase approximation).
 Fock matrices are calculated directly and in parallel without use of integrals on disk.

 Initial molecular orbitals are obtained according to
 ".MOSTART EWMO  " input option

     Wave function specification
     ============================
@    Wave function type        --- HF ---
@    Number of closed shell electrons         102
@    Number of electrons in active shells       0
@    Total charge of the molecule               0

@    Spin multiplicity and 2 M_S                1         0
@    Total number of symmetries                 1 (point group: C1 )
@    Reference state symmetry                   1 (irrep name : A  )

     Orbital specifications
     ======================
@    Abelian symmetry species          All |    1
@                                          |  A  
                                       --- |  ---
@    Occupied SCF orbitals              51 |   51
@    Secondary orbitals                525 |  525
@    Total number of orbitals          576 |  576
@    Number of basis functions         604 |  604

     Optimization information
     ========================
@    Number of configurations                 1
@    Number of orbital rotations          26775
     ------------------------------------------
@    Total number of variables            26776

     Maximum number of Fock   iterations      0
     Maximum number of DIIS   iterations     60
     Maximum number of QC-SCF iterations     60
     Threshold for SCF convergence     1.00D-05

    INFORMATION: Switched to "new" integral transformation (from 1988 ;-) )
    because more than 255 basis functions.


 ***********************************************
 ***** DIIS acceleration of SCF iterations *****
 ***********************************************

 C1-DIIS algorithm; max error vectors =    8

 Iter      Total energy        Error norm    Delta(E)  DIIS dim.
 -----------------------------------------------------------------------------
   1  Screening settings (-IFTHRS, JTDIIS, DIFDEN, times)   -9    1    T  1.16D+01  1.18D+01
@  1    -641.622557000        6.07432D+00   -6.42D+02    1
      Virial theorem: -V/T =      2.008112
@    MULPOP   C_a     1.08; C_b    -0.09; C_c     0.81; C_d     0.31; C_e     0.69; C_f     0.58; C_g     0.56; C_h     0.41; C_i     0.31; C_j     0.89; 
@             N_a    -0.26; N_b     0.95; O_a    -1.23; O_b    -1.15; H_a    -0.48; H_b    -0.37; H_c    -0.04; H_d     0.10; H_e    -0.22; H_f    -0.42; 
@             H_g    -0.46; H_h    -0.48; H_i    -0.44; H_j    -0.35; H_k    -0.42; H_l    -0.28; 
   1  Level shift: doubly occupied orbital energies shifted by -2.00D-01
 -----------------------------------------------------------------------------
   2  Screening settings (-IFTHRS, JTDIIS, DIFDEN, times)   -9    2    T  7.22D+00  7.28D+00
@  2    -643.753517556        2.70935D+00   -2.13D+00    2
      Virial theorem: -V/T =      2.002019
@    MULPOP   C_a    -0.32; C_b     1.03; C_c     1.09; C_d     0.54; C_e     1.07; C_f     0.89; C_g     1.01; C_h     0.65; C_i     0.11; C_j     0.39; 
@             N_a     0.33; N_b     0.72; O_a    -0.70; O_b    -0.50; H_a    -1.06; H_b    -0.66; H_c    -0.12; H_d     0.07; H_e    -0.16; H_f    -0.68; 
@             H_g    -0.64; H_h    -0.77; H_i    -0.59; H_j    -0.42; H_k    -0.69; H_l    -0.59; 
   2  Level shift: doubly occupied orbital energies shifted by -1.00D-01
 -----------------------------------------------------------------------------
   3  Screening settings (-IFTHRS, JTDIIS, DIFDEN, times)   -9    3    T  7.18D+00  7.25D+00
@  3    -644.133451381        7.17810D-01   -3.80D-01    3
      Virial theorem: -V/T =      2.001076
@    MULPOP   C_a    -0.29; C_b     1.03; C_c     0.95; C_d     0.45; C_e     1.09; C_f     0.84; C_g     0.93; C_h     0.60; C_i     0.03; C_j     0.74; 
@             N_a     0.23; N_b     0.76; O_a    -0.82; O_b    -0.73; H_a    -0.97; H_b    -0.66; H_c    -0.10; H_d     0.06; H_e    -0.11; H_f    -0.64; 
@             H_g    -0.56; H_h    -0.70; H_i    -0.53; H_j    -0.36; H_k    -0.69; H_l    -0.52; 
   3  Level shift: doubly occupied orbital energies shifted by -5.00D-02
 -----------------------------------------------------------------------------
   4  Screening settings (-IFTHRS, JTDIIS, DIFDEN, times)   -9    4    T  7.16D+00  7.22D+00
@  4    -644.171887012        2.33265D-01   -3.84D-02    4
      Virial theorem: -V/T =      2.002717
@    MULPOP   C_a    -0.26; C_b     1.04; C_c     0.87; C_d     0.40; C_e     1.03; C_f     0.83; C_g     0.89; C_h     0.58; C_i     0.06; C_j     0.67; 
@             N_a     0.24; N_b     0.59; O_a    -0.79; O_b    -0.64; H_a    -0.94; H_b    -0.66; H_c    -0.12; H_d     0.04; H_e    -0.09; H_f    -0.60; 
@             H_g    -0.51; H_h    -0.67; H_i    -0.50; H_j    -0.33; H_k    -0.66; H_l    -0.47; 
   4  Level shift: doubly occupied orbital energies shifted by -2.50D-02
 -----------------------------------------------------------------------------
   5  Screening settings (-IFTHRS, JTDIIS, DIFDEN, times)  -13    5    F  7.37D+00  7.44D+00
@  5    -644.179390275        9.12469D-02   -7.50D-03    5
      Virial theorem: -V/T =      2.002246
@    MULPOP   C_a    -0.29; C_b     1.05; C_c     0.85; C_d     0.41; C_e     1.00; C_f     0.84; C_g     0.85; C_h     0.59; C_i    -0.02; C_j     0.71; 
@             N_a     0.23; N_b     0.58; O_a    -0.77; O_b    -0.66; H_a    -0.93; H_b    -0.65; H_c    -0.12; H_d     0.04; H_e    -0.09; H_f    -0.58; 
@             H_g    -0.50; H_h    -0.65; H_i    -0.49; H_j    -0.32; H_k    -0.65; H_l    -0.45; 
   5  Level shift: doubly occupied orbital energies shifted by -1.25D-02
 -----------------------------------------------------------------------------
   6  Screening settings (-IFTHRS, JTDIIS, DIFDEN, times)  -13    6    T  7.32D+00  7.38D+00
@  6    -644.181178835        4.44221D-02   -1.79D-03    6
      Virial theorem: -V/T =      2.002091
@    MULPOP   C_a    -0.29; C_b     1.05; C_c     0.83; C_d     0.41; C_e     0.99; C_f     0.85; C_g     0.84; C_h     0.62; C_i    -0.02; C_j     0.71; 
@             N_a     0.22; N_b     0.58; O_a    -0.77; O_b    -0.64; H_a    -0.93; H_b    -0.65; H_c    -0.12; H_d     0.04; H_e    -0.08; H_f    -0.58; 
@             H_g    -0.50; H_h    -0.65; H_i    -0.49; H_j    -0.32; H_k    -0.64; H_l    -0.45; 
 -----------------------------------------------------------------------------
   7  Screening settings (-IFTHRS, JTDIIS, DIFDEN, times)  -13    7    T  7.33D+00  7.36D+00
@  7    -644.181678998        2.06262D-02   -5.00D-04    7
      Virial theorem: -V/T =      2.002123
@    MULPOP   C_a    -0.29; C_b     1.05; C_c     0.83; C_d     0.41; C_e     0.98; C_f     0.85; C_g     0.83; C_h     0.63; C_i    -0.03; C_j     0.71; 
@             N_a     0.21; N_b     0.57; O_a    -0.76; O_b    -0.65; H_a    -0.93; H_b    -0.65; H_c    -0.12; H_d     0.04; H_e    -0.08; H_f    -0.58; 
@             H_g    -0.50; H_h    -0.64; H_i    -0.49; H_j    -0.32; H_k    -0.64; H_l    -0.45; 
 -----------------------------------------------------------------------------
   8  Screening settings (-IFTHRS, JTDIIS, DIFDEN, times)  -13    8    T  7.31D+00  7.36D+00
@  8    -644.181772546        8.25832D-03   -9.35D-05    8
      Virial theorem: -V/T =      2.002124
@    MULPOP   C_a    -0.28; C_b     1.05; C_c     0.84; C_d     0.41; C_e     0.98; C_f     0.86; C_g     0.83; C_h     0.64; C_i    -0.04; C_j     0.72; 
@             N_a     0.21; N_b     0.56; O_a    -0.76; O_b    -0.64; H_a    -0.93; H_b    -0.66; H_c    -0.13; H_d     0.04; H_e    -0.08; H_f    -0.58; 
@             H_g    -0.50; H_h    -0.65; H_i    -0.49; H_j    -0.32; H_k    -0.64; H_l    -0.45; 
 -----------------------------------------------------------------------------
   9  Screening settings (-IFTHRS, JTDIIS, DIFDEN, times)  -13    9    T  7.30D+00  7.33D+00
@  9    -644.181786798        2.99285D-03   -1.43D-05    8
      Virial theorem: -V/T =      2.002114
@    MULPOP   C_a    -0.28; C_b     1.05; C_c     0.84; C_d     0.41; C_e     0.98; C_f     0.86; C_g     0.83; C_h     0.64; C_i    -0.03; C_j     0.72; 
@             N_a     0.21; N_b     0.56; O_a    -0.75; O_b    -0.64; H_a    -0.93; H_b    -0.66; H_c    -0.13; H_d     0.04; H_e    -0.08; H_f    -0.58; 
@             H_g    -0.50; H_h    -0.65; H_i    -0.49; H_j    -0.32; H_k    -0.64; H_l    -0.45; 
 -----------------------------------------------------------------------------
  10  Screening settings (-IFTHRS, JTDIIS, DIFDEN, times)  -13   10    T  7.31D+00  7.34D+00
@ 10    -644.181789464        1.55924D-03   -2.67D-06    8
      Virial theorem: -V/T =      2.002114
@    MULPOP   C_a    -0.28; C_b     1.05; C_c     0.84; C_d     0.40; C_e     0.99; C_f     0.85; C_g     0.83; C_h     0.64; C_i    -0.03; C_j     0.72; 
@             N_a     0.21; N_b     0.56; O_a    -0.75; O_b    -0.64; H_a    -0.93; H_b    -0.66; H_c    -0.13; H_d     0.04; H_e    -0.08; H_f    -0.58; 
@             H_g    -0.50; H_h    -0.65; H_i    -0.49; H_j    -0.32; H_k    -0.64; H_l    -0.45; 
 -----------------------------------------------------------------------------
  11  Screening settings (-IFTHRS, JTDIIS, DIFDEN, times)  -13   11    T  7.25D+00  7.28D+00
@ 11    -644.181790340        8.44237D-04   -8.76D-07    8
      Virial theorem: -V/T =      2.002115
@    MULPOP   C_a    -0.28; C_b     1.05; C_c     0.84; C_d     0.40; C_e     0.99; C_f     0.85; C_g     0.83; C_h     0.64; C_i    -0.03; C_j     0.72; 
@             N_a     0.22; N_b     0.56; O_a    -0.75; O_b    -0.64; H_a    -0.93; H_b    -0.66; H_c    -0.13; H_d     0.04; H_e    -0.08; H_f    -0.58; 
@             H_g    -0.50; H_h    -0.65; H_i    -0.49; H_j    -0.32; H_k    -0.64; H_l    -0.45; 
 -----------------------------------------------------------------------------
  12  Screening settings (-IFTHRS, JTDIIS, DIFDEN, times)  -13   12    T  7.23D+00  7.26D+00
@ 12    -644.181790595        2.54358D-04   -2.55D-07    8
      Virial theorem: -V/T =      2.002114
@    MULPOP   C_a    -0.28; C_b     1.05; C_c     0.84; C_d     0.40; C_e     0.99; C_f     0.85; C_g     0.83; C_h     0.64; C_i    -0.03; C_j     0.72; 
@             N_a     0.22; N_b     0.56; O_a    -0.75; O_b    -0.64; H_a    -0.93; H_b    -0.66; H_c    -0.13; H_d     0.04; H_e    -0.08; H_f    -0.58; 
@             H_g    -0.50; H_h    -0.65; H_i    -0.49; H_j    -0.32; H_k    -0.64; H_l    -0.45; 
 -----------------------------------------------------------------------------
  13  Screening settings (-IFTHRS, JTDIIS, DIFDEN, times)  -13   13    T  7.20D+00  7.24D+00
@ 13    -644.181790617        1.12580D-04   -2.21D-08    8
      Virial theorem: -V/T =      2.002114
@    MULPOP   C_a    -0.28; C_b     1.05; C_c     0.84; C_d     0.40; C_e     0.99; C_f     0.85; C_g     0.83; C_h     0.64; C_i    -0.03; C_j     0.72; 
@             N_a     0.22; N_b     0.56; O_a    -0.75; O_b    -0.64; H_a    -0.93; H_b    -0.66; H_c    -0.13; H_d     0.04; H_e    -0.08; H_f    -0.58; 
@             H_g    -0.50; H_h    -0.65; H_i    -0.49; H_j    -0.32; H_k    -0.64; H_l    -0.45; 
 -----------------------------------------------------------------------------
  14  Screening settings (-IFTHRS, JTDIIS, DIFDEN, times)  -13   14    T  7.20D+00  7.24D+00
@ 14    -644.181790619        3.64066D-05   -2.00D-09    8
      Virial theorem: -V/T =      2.002114
@    MULPOP   C_a    -0.28; C_b     1.05; C_c     0.84; C_d     0.40; C_e     0.99; C_f     0.85; C_g     0.83; C_h     0.64; C_i    -0.03; C_j     0.72; 
@             N_a     0.22; N_b     0.56; O_a    -0.75; O_b    -0.64; H_a    -0.93; H_b    -0.66; H_c    -0.13; H_d     0.04; H_e    -0.08; H_f    -0.58; 
@             H_g    -0.50; H_h    -0.65; H_i    -0.49; H_j    -0.32; H_k    -0.64; H_l    -0.45; 
 -----------------------------------------------------------------------------
  15  Screening settings (-IFTHRS, JTDIIS, DIFDEN, times)  -13   15    T  7.13D+00  7.22D+00
@ 15    -644.181790619        1.57631D-05   -2.72D-10    8
      Virial theorem: -V/T =      2.002114
@    MULPOP   C_a    -0.28; C_b     1.05; C_c     0.84; C_d     0.40; C_e     0.99; C_f     0.85; C_g     0.83; C_h     0.64; C_i    -0.03; C_j     0.72; 
@             N_a     0.22; N_b     0.56; O_a    -0.75; O_b    -0.64; H_a    -0.93; H_b    -0.66; H_c    -0.13; H_d     0.04; H_e    -0.08; H_f    -0.58; 
@             H_g    -0.50; H_h    -0.65; H_i    -0.49; H_j    -0.32; H_k    -0.64; H_l    -0.45; 
 -----------------------------------------------------------------------------
  16  Screening settings (-IFTHRS, JTDIIS, DIFDEN, times)  -13   16    T  7.16D+00  7.20D+00
@ 16    -644.181790619        6.93467D-06   -2.25D-11    8

@ *** DIIS converged in  16 iterations !
@     Converged SCF energy, gradient:   -644.181790619205    6.93D-06
    - total time used in SIRFCK :              0.00 seconds


 *** SCF orbital energy analysis ***

 Only the 20 lowest virtual orbital energies printed in each symmetry.

 Number of electrons :  102
 Orbital occupations :   51

 Sym       Hartree-Fock orbital energies

1 A     -20.59218597   -20.58947580   -15.84027049   -15.61046858   -11.32125322
        -11.28996808   -11.28713602   -11.27950693   -11.27322174   -11.27246217
        -11.25658750   -11.24994666   -11.24453115   -11.24186257    -1.57822219
         -1.37562611    -1.25058150    -1.13947827    -1.11838440    -1.08831830
         -1.04561777    -0.99251096    -0.93798766    -0.86491291    -0.81593083
         -0.78943094    -0.77712033    -0.77093666    -0.73590126    -0.72534488
         -0.70758815    -0.69119874    -0.69004856    -0.65987473    -0.63714650
         -0.61201142    -0.59699300    -0.56514160    -0.55688193    -0.54122928
         -0.53398220    -0.52461859    -0.51215596    -0.48919015    -0.47596575
         -0.47226337    -0.45435358    -0.43472311    -0.40141447    -0.33322262
         -0.25755072    -0.00132203     0.00421356     0.00784312     0.01175485
          0.01194445     0.01419263     0.01799226     0.01925123     0.02098708
          0.02216608     0.02321196     0.02372653     0.02463451     0.02552494
          0.02648754     0.02837771     0.03142600     0.03208873     0.03258459
          0.03454284

    E(LUMO) :    -0.00132203 au (symmetry 1)
  - E(HOMO) :    -0.25755072 au (symmetry 1)
  ------------------------------------------
    gap     :     0.25622869 au

 --- Writing SIRIFC interface file

 CPU and wall time for SCF :     144.311     145.442


                       .-----------------------------------.
                       | --- Final results from SIRIUS --- |
                       `-----------------------------------'


@    Spin multiplicity:           1
@    Spatial symmetry:            1 ( irrep  A   in C1  )
@    Total charge of molecule:    0

@    Final HF energy:            -644.181790619205                 
@    Nuclear repulsion:           704.495638200713
@    Electronic energy:         -1348.677428819918

@    Final gradient norm:           0.000006934672

 
     Date and time (Linux)  : Sat May 10 02:06:14 2025
     Host name              : xm046                                   

File label for MO orbitals:  10May25   FOCKDIIS

 (Only coefficients > 0.0100 are printed.)

 Molecular orbitals for symmetry species 1  (A  )
 ------------------------------------------------

    Orbital        42       43       44       45       46       47       48
   2 C_a :1s    -0.0338  -0.0057  -0.0000   0.0034  -0.0007   0.0000  -0.0000
   3 C_a :1s    -0.0280   0.0499  -0.0000  -0.0005   0.0065   0.0000  -0.0000
   4 C_a :1s    -0.1157  -0.2219  -0.0000   0.0079  -0.0357   0.0000  -0.0000
   5 C_a :1s    -0.0684   0.4345  -0.0000   0.1362  -0.0569  -0.0000   0.0000
   6 C_a :2px    0.0992   0.0142  -0.0000  -0.0057   0.0011   0.0000   0.0000
   7 C_a :2py   -0.0699  -0.0320   0.0000  -0.0012   0.0003  -0.0000   0.0000
   8 C_a :2pz    0.0000   0.0000   0.0446  -0.0000   0.0000  -0.0135   0.0010
   9 C_a :2px   -0.0587  -0.0463   0.0000   0.0015  -0.0072  -0.0000   0.0000
  10 C_a :2py   -0.0537  -0.0061  -0.0000  -0.0040  -0.0056   0.0000  -0.0000
  11 C_a :2pz    0.0000  -0.0000  -0.0125   0.0000  -0.0000   0.0170   0.0006
  12 C_a :2px   -0.2757  -0.1260  -0.0000  -0.0534   0.1429   0.0000  -0.0000
  13 C_a :2py   -0.0155  -0.0996  -0.0000   0.0002   0.0427   0.0000  -0.0000
  14 C_a :2pz    0.0000  -0.0000   0.3790  -0.0000  -0.0000   0.1452  -0.0117
  15 C_a :2px   -0.0414  -0.0984   0.0000  -0.0509  -0.0190  -0.0000   0.0000
  16 C_a :2py   -0.0114  -0.0621   0.0000  -0.0912   0.0205  -0.0000   0.0000
  17 C_a :2pz    0.0000  -0.0000   0.0139  -0.0000  -0.0000   0.0260  -0.0002
  18 C_a :3d2-  -0.0157  -0.0123  -0.0000  -0.0006   0.0001   0.0000   0.0000
  21 C_a :3d1+  -0.0000   0.0000   0.0057   0.0000   0.0000  -0.0144  -0.0008
  23 C_a :3d2-   0.0403  -0.0011   0.0000   0.0010  -0.0009  -0.0000   0.0000
  27 C_a :3d2+   0.0250   0.0030  -0.0000  -0.0011   0.0030   0.0000  -0.0000
  28 C_a :3d2-   0.0096  -0.0267  -0.0000   0.0018   0.0102  -0.0000   0.0000
  29 C_a :3d1-   0.0000  -0.0000  -0.0379  -0.0000  -0.0000   0.0063  -0.0010
  30 C_a :3d0   -0.0341   0.0025   0.0000  -0.0075   0.0037   0.0000  -0.0000
  31 C_a :3d1+   0.0000  -0.0000  -0.1071  -0.0000  -0.0000  -0.0238   0.0030
  32 C_a :3d2+   0.0240   0.0102   0.0000   0.0033  -0.0203  -0.0000  -0.0000
  34 C_b :1s    -0.0366  -0.0581   0.0000  -0.0052   0.0008  -0.0000  -0.0000
  35 C_b :1s    -0.2509  -0.0382  -0.0000  -0.0025  -0.0017   0.0000   0.0000
  36 C_b :1s    -0.1318  -0.0306   0.0000  -0.0918   0.0127  -0.0000   0.0000
  37 C_b :1s    -0.3273   0.2761   0.0000   0.0255  -0.0030  -0.0000   0.0000
  38 C_b :2px   -0.0787   0.0172   0.0000   0.0082  -0.0015  -0.0000  -0.0000
  39 C_b :2py    0.2403   0.2047   0.0000   0.0101  -0.0016  -0.0000   0.0000
  40 C_b :2pz    0.0000  -0.0000  -0.0399  -0.0000  -0.0000   0.1651   0.0105
  41 C_b :2px   -0.0747  -0.0976   0.0000   0.0012  -0.0164   0.0000   0.0000
  42 C_b :2py    0.0315  -0.0720   0.0000  -0.0004  -0.0048  -0.0000   0.0000
  44 C_b :2px    0.4527   0.1968  -0.0000   0.0340  -0.0854  -0.0000   0.0000
  45 C_b :2py   -0.4540  -0.0544   0.0000   0.0526  -0.0351  -0.0000   0.0000
  46 C_b :2pz   -0.0000   0.0000   0.2666   0.0000   0.0000   0.2507   0.0258
  47 C_b :2px    0.0292   0.0239   0.0000   0.1281   0.0221   0.0000  -0.0000
  48 C_b :2py    0.1278   0.0011   0.0000   0.0220  -0.0018   0.0000  -0.0000
  49 C_b :2pz   -0.0000  -0.0000  -0.0026  -0.0000   0.0000   0.0010   0.0127
  50 C_b :3d2-  -0.0191  -0.0140   0.0000  -0.0003   0.0000  -0.0000   0.0000
  51 C_b :3d1-  -0.0000   0.0000   0.0044  -0.0000   0.0000  -0.0101  -0.0005
  54 C_b :3d2+  -0.0120  -0.0070  -0.0000   0.0005  -0.0002   0.0000  -0.0000
  55 C_b :3d2-   0.1178   0.0465  -0.0000   0.0025   0.0060  -0.0000   0.0000
  57 C_b :3d0   -0.0101  -0.0013  -0.0000   0.0003  -0.0001   0.0000   0.0000
  59 C_b :3d2+   0.0762  -0.0004   0.0000  -0.0014   0.0014  -0.0000   0.0000
  60 C_b :3d2-  -0.0206   0.0319   0.0000  -0.0294   0.0071  -0.0000   0.0000
  61 C_b :3d1-  -0.0000  -0.0000  -0.1303  -0.0000   0.0000  -0.0702  -0.0006
  62 C_b :3d0   -0.0644  -0.0301  -0.0000   0.0004   0.0247   0.0000  -0.0000
  63 C_b :3d1+  -0.0000   0.0000  -0.2590   0.0000   0.0000  -0.1373   0.0089
  64 C_b :3d2+  -0.0015  -0.0151   0.0000   0.0262  -0.0386  -0.0000   0.0000
  66 C_c :1s    -0.0469  -0.0491  -0.0000   0.0047  -0.0015   0.0000   0.0000
  67 C_c :1s    -0.5017  -0.1864   0.0000   0.0006  -0.0159   0.0000   0.0000
  68 C_c :1s    -0.5220  -0.2782  -0.0000   0.0054   0.1474   0.0000  -0.0000
  69 C_c :1s    -0.2582  -0.1367  -0.0000  -0.1496  -0.1376   0.0000   0.0000
  70 C_c :2px    0.1370   0.0993   0.0000  -0.0134   0.0035  -0.0000   0.0000
  71 C_c :2py   -0.2594  -0.2460  -0.0000  -0.0102   0.0014   0.0000  -0.0000
  72 C_c :2pz    0.0000  -0.0000  -0.1479  -0.0000  -0.0000   0.3210   0.0160
  73 C_c :2px    0.2081  -0.0865   0.0000  -0.0018  -0.0061  -0.0000   0.0000
  74 C_c :2py   -0.0387  -0.0914   0.0000  -0.0056  -0.0131   0.0000   0.0000
  75 C_c :2pz   -0.0000   0.0000   0.0133   0.0000   0.0000  -0.0172  -0.0013
  76 C_c :2px   -0.5262  -0.0865   0.0000  -0.0667   0.0457  -0.0000  -0.0000
  77 C_c :2py    0.4315   0.3359  -0.0000  -0.0283  -0.0607   0.0000  -0.0000
  78 C_c :2pz   -0.0000   0.0000   0.1910   0.0000   0.0000   0.3502   0.0231
  79 C_c :2px    0.0917  -0.0675  -0.0000  -0.1409   0.0126  -0.0000  -0.0000
  80 C_c :2py   -0.0558   0.0523  -0.0000   0.0678  -0.0552  -0.0000  -0.0000
  81 C_c :2pz   -0.0000   0.0000  -0.0161   0.0000   0.0000  -0.0348  -0.0136
  82 C_c :3d2-  -0.0243  -0.0319  -0.0000  -0.0014   0.0001  -0.0000   0.0000
  85 C_c :3d1+  -0.0000  -0.0000   0.0096  -0.0000   0.0000  -0.0141  -0.0005
  86 C_c :3d2+  -0.0115  -0.0046   0.0000   0.0006  -0.0002  -0.0000  -0.0000
  87 C_c :3d2-   0.1904   0.1017   0.0000   0.0063   0.0043  -0.0000   0.0000
  89 C_c :3d0   -0.0124  -0.0068   0.0000  -0.0005  -0.0015  -0.0000   0.0000
  91 C_c :3d2+   0.0409   0.0496  -0.0000  -0.0022   0.0101  -0.0000   0.0000
  92 C_c :3d2-  -0.1095  -0.0487  -0.0000   0.0079   0.0510   0.0000  -0.0000
  93 C_c :3d1-   0.0000  -0.0000  -0.2197  -0.0000  -0.0000  -0.1379  -0.0156
  94 C_c :3d0    0.0074  -0.0049   0.0000  -0.0005  -0.0211  -0.0000   0.0000
  95 C_c :3d1+   0.0000  -0.0000  -0.3046  -0.0000  -0.0000  -0.1632  -0.0197
  96 C_c :3d2+  -0.2094  -0.0233   0.0000  -0.0084   0.0144  -0.0000   0.0000
  98 C_d :1s     0.0028  -0.0618   0.0000  -0.0090   0.0027   0.0000  -0.0000
  99 C_d :1s    -0.3249  -0.3215   0.0000  -0.0334  -0.0403   0.0000   0.0000
 100 C_d :1s    -0.1029  -0.2268  -0.0000   0.0816  -0.0079  -0.0000  -0.0000
 101 C_d :1s    -0.2367  -0.2473  -0.0000   0.1262   0.0415   0.0000  -0.0000
 102 C_d :2px   -0.1627  -0.0940  -0.0000   0.0170  -0.0042   0.0000   0.0000
 103 C_d :2py    0.1101   0.3609  -0.0000   0.0247  -0.0033   0.0000  -0.0000
 104 C_d :2pz    0.0000   0.0000  -0.2187   0.0000  -0.0000   0.3547   0.0143
 105 C_d :2px    0.3626  -0.0435   0.0000  -0.0057   0.0056  -0.0000   0.0000
 106 C_d :2py    0.3610   0.0455   0.0000   0.0193   0.0236  -0.0000  -0.0000
 108 C_d :2px    0.0152   0.3346  -0.0000  -0.0142   0.0644   0.0000  -0.0000
 109 C_d :2py   -0.6273  -0.5464  -0.0000   0.1359  -0.0030   0.0000  -0.0000
 110 C_d :2pz    0.0000  -0.0000   0.0467  -0.0000  -0.0000   0.5197  -0.0174
 111 C_d :2px    0.1695  -0.0921   0.0000  -0.0965   0.0408  -0.0000   0.0000
 112 C_d :2py    0.0206  -0.0900   0.0000   0.0225   0.0660   0.0000  -0.0000
 113 C_d :2pz    0.0000  -0.0000   0.0454  -0.0000  -0.0000   0.0369  -0.0293
 114 C_d :3d2-  -0.0186  -0.0348  -0.0000  -0.0009  -0.0000   0.0000   0.0000
 117 C_d :3d1+   0.0000  -0.0000  -0.0027   0.0000  -0.0000   0.0117   0.0007
 119 C_d :3d2-   0.0860   0.1535   0.0000   0.0064  -0.0006   0.0000  -0.0000
 121 C_d :3d0   -0.0115  -0.0097  -0.0000   0.0000   0.0000   0.0000   0.0000
 123 C_d :3d2+   0.1509   0.0579  -0.0000  -0.0007   0.0045   0.0000  -0.0000
 124 C_d :3d2-  -0.0713  -0.0522  -0.0000  -0.0347   0.0227  -0.0000   0.0000
 125 C_d :3d1-   0.0000  -0.0000  -0.2609  -0.0000  -0.0000  -0.2681   0.0096
 126 C_d :3d0   -0.0322  -0.0269   0.0000  -0.0014  -0.0069   0.0000  -0.0000
 127 C_d :3d1+   0.0000  -0.0000  -0.3583  -0.0000  -0.0000  -0.4332   0.0054
 128 C_d :3d2+   0.0549  -0.0722  -0.0000   0.1034  -0.0790   0.0000  -0.0000
 130 C_e :1s    -0.0111  -0.0820  -0.0000   0.0097  -0.0012  -0.0000  -0.0000
 131 C_e :1s    -0.0474  -0.3389   0.0000  -0.0618   0.0113   0.0000  -0.0000
 132 C_e :1s     0.0653  -0.2575   0.0000  -0.0222  -0.1250   0.0000  -0.0000
 133 C_e :1s    -0.0732  -0.4267   0.0000  -0.1424  -0.1850   0.0000  -0.0000
 134 C_e :2px   -0.0873   0.0839   0.0000  -0.0292   0.0054  -0.0000  -0.0000
 135 C_e :2py   -0.0252  -0.3541   0.0000  -0.0245   0.0029  -0.0000   0.0000
 136 C_e :2pz   -0.0000   0.0000  -0.2948  -0.0000   0.0000   0.2440   0.0026
 137 C_e :2px    0.5349   0.1523   0.0000   0.0486   0.0152  -0.0000  -0.0000
 138 C_e :2py    0.3515   0.0090   0.0000  -0.0011   0.0440  -0.0000  -0.0000
 139 C_e :2pz    0.0000  -0.0000   0.0194   0.0000  -0.0000  -0.0172   0.0021
 140 C_e :2px   -0.1076  -0.3870   0.0000  -0.0622  -0.0740   0.0000   0.0000
 141 C_e :2py   -0.2519   0.6028  -0.0000   0.0269   0.0629  -0.0000  -0.0000
 142 C_e :2pz    0.0000  -0.0000  -0.3586   0.0000  -0.0000   0.4326   0.0572
 143 C_e :2px    0.1385  -0.0171   0.0000   0.1469   0.0430  -0.0000  -0.0000
 144 C_e :2py    0.2641  -0.1607  -0.0000  -0.1332   0.0503  -0.0000   0.0000
 145 C_e :2pz    0.0000  -0.0000  -0.0213  -0.0000  -0.0000  -0.0074   0.0549
 146 C_e :3d2-   0.0080  -0.0364  -0.0000  -0.0027   0.0007   0.0000  -0.0000
 147 C_e :3d1-   0.0000  -0.0000  -0.0058   0.0000  -0.0000   0.0112   0.0005
 149 C_e :3d1+   0.0000  -0.0000   0.0120   0.0000  -0.0000   0.0007   0.0005
 151 C_e :3d2-   0.0327   0.1645  -0.0000   0.0264  -0.0024   0.0000  -0.0000
 153 C_e :3d0    0.0005  -0.0116   0.0000  -0.0012  -0.0009   0.0000  -0.0000
 155 C_e :3d2+  -0.1203   0.0194  -0.0000  -0.0154  -0.0041   0.0000  -0.0000
 156 C_e :3d2-   0.1382  -0.0460   0.0000  -0.0058  -0.0525  -0.0000   0.0000
 157 C_e :3d1-   0.0000  -0.0000  -0.1753  -0.0000  -0.0000  -0.3544  -0.0257
 158 C_e :3d0   -0.0058  -0.0542  -0.0000  -0.0010   0.0329   0.0000  -0.0000
 159 C_e :3d1+   0.0000  -0.0000  -0.3057  -0.0000  -0.0000  -0.5160  -0.0430
 160 C_e :3d2+  -0.2109  -0.0872  -0.0000   0.0151  -0.0853  -0.0000  -0.0000
 162 C_f :1s     0.0362  -0.0402   0.0000  -0.0163   0.0072   0.0000   0.0000
 163 C_f :1s     0.4402  -0.1721   0.0000  -0.0611   0.0610  -0.0000  -0.0000
 164 C_f :1s     0.2191  -0.3127  -0.0000  -0.0231   0.0549  -0.0000   0.0000
 165 C_f :1s     0.2650  -0.1731  -0.0000   0.0072   0.1880  -0.0000  -0.0000
 166 C_f :2px    0.0637  -0.1049  -0.0000   0.0345  -0.0084   0.0000   0.0000
 167 C_f :2py   -0.2650   0.2617  -0.0000   0.0457  -0.0169  -0.0000   0.0000
 168 C_f :2pz   -0.0000   0.0000  -0.3378  -0.0000   0.0000   0.1102  -0.0058
 169 C_f :2px    0.4786   0.1819   0.0000   0.0649   0.0296  -0.0000   0.0000
 170 C_f :2py    0.1766   0.1537  -0.0000   0.0658  -0.0265  -0.0000   0.0000
 171 C_f :2pz    0.0000  -0.0000   0.0198   0.0000  -0.0000   0.0042  -0.0033
 172 C_f :2px   -0.5702   0.2631  -0.0000   0.1128  -0.0940  -0.0000  -0.0000
 173 C_f :2py    0.3891  -0.5929  -0.0000  -0.2374  -0.1075  -0.0000   0.0000
 174 C_f :2pz    0.0000  -0.0000  -0.7091  -0.0000  -0.0000   0.0144  -0.0159
 175 C_f :2px    0.1488   0.0298   0.0000   0.0761   0.0646   0.0000   0.0000
 176 C_f :2py    0.1280   0.1640  -0.0000  -0.0002  -0.0256  -0.0000   0.0000
 177 C_f :2pz   -0.0000   0.0000  -0.0683   0.0000   0.0000  -0.0433   0.0210
 178 C_f :3d2-   0.0196  -0.0324  -0.0000  -0.0016   0.0015  -0.0000   0.0000
 179 C_f :3d1-   0.0000   0.0000   0.0111  -0.0000  -0.0000   0.0045   0.0005
 181 C_f :3d1+  -0.0000   0.0000  -0.0087  -0.0000   0.0000   0.0133   0.0004
 183 C_f :3d2-  -0.1910   0.0992  -0.0000   0.0132  -0.0291   0.0000  -0.0000
 185 C_f :3d0    0.0110  -0.0059  -0.0000  -0.0031   0.0019  -0.0000  -0.0000
 187 C_f :3d2+   0.0400   0.0759  -0.0000   0.0152  -0.0145  -0.0000   0.0000
 188 C_f :3d2-   0.0673  -0.1201   0.0000  -0.1029   0.0058  -0.0000   0.0000
 189 C_f :3d1-  -0.0000   0.0000  -0.0809  -0.0000   0.0000  -0.4716   0.0018
 190 C_f :3d0    0.0305  -0.0116  -0.0000   0.0054  -0.0316   0.0000   0.0000
 191 C_f :3d1+  -0.0000   0.0000  -0.1549  -0.0000   0.0000  -0.6974   0.0056
 192 C_f :3d2+   0.0735  -0.0423  -0.0000   0.0848  -0.0174  -0.0000  -0.0000
 194 C_g :1s     0.0522  -0.0716   0.0000   0.0247   0.0049  -0.0000   0.0000
 195 C_g :1s     0.5070  -0.0546   0.0000  -0.0551   0.1352  -0.0000  -0.0000
 196 C_g :1s     0.1748  -0.0940   0.0000  -0.0742   0.1458   0.0000   0.0000
 197 C_g :1s     0.3624  -0.1957   0.0000  -0.2176   0.0502   0.0000   0.0000
 198 C_g :2px   -0.1671   0.0065   0.0000  -0.0714  -0.0104   0.0000   0.0000
 199 C_g :2py    0.2908  -0.2324   0.0000  -0.0434   0.0214   0.0000  -0.0000
 200 C_g :2pz   -0.0000  -0.0000  -0.3529   0.0000   0.0000  -0.1342  -0.0137
 201 C_g :2px    0.0581   0.1745  -0.0000   0.1356  -0.0835  -0.0000   0.0000
 202 C_g :2py    0.2571   0.1423   0.0000   0.0700   0.0155  -0.0000   0.0000
 203 C_g :2pz    0.0000  -0.0000   0.0215   0.0000  -0.0000  -0.0021   0.0001
 204 C_g :2px    0.2077  -0.3940   0.0000  -0.1295   0.1483   0.0000   0.0000
 205 C_g :2py   -0.4570   0.1789   0.0000   0.0696  -0.0219  -0.0000  -0.0000
 206 C_g :2pz    0.0000  -0.0000  -0.2910   0.0000  -0.0000  -0.4006  -0.0595
 207 C_g :2px    0.1159   0.1970  -0.0000  -0.1039   0.0296   0.0000   0.0000
 208 C_g :2py   -0.0731   0.1916   0.0000   0.1150  -0.0116   0.0000   0.0000
 209 C_g :2pz   -0.0000   0.0000   0.0811   0.0000   0.0000   0.0571  -0.0903
 210 C_g :3d2-   0.0334  -0.0198  -0.0000  -0.0040   0.0040  -0.0000   0.0000
 213 C_g :3d1+  -0.0000   0.0000   0.0110  -0.0000   0.0000   0.0148   0.0006
 215 C_g :3d2-  -0.1976   0.0658   0.0000   0.0155  -0.0490  -0.0000   0.0000
 217 C_g :3d0    0.0154  -0.0031  -0.0000   0.0004   0.0032  -0.0000   0.0000
 219 C_g :3d2+  -0.1190  -0.0359  -0.0000  -0.0521  -0.0019  -0.0000  -0.0000
 220 C_g :3d2-   0.1015   0.0182   0.0000   0.0149   0.0670   0.0000   0.0000
 221 C_g :3d1-   0.0000  -0.0000   0.1665  -0.0000   0.0000  -0.3873  -0.0301
 222 C_g :3d0    0.0269  -0.0359   0.0000  -0.0478  -0.0100  -0.0000   0.0000
 223 C_g :3d1+   0.0000  -0.0000   0.1561  -0.0000   0.0000  -0.5157  -0.0432
 224 C_g :3d2+  -0.0424  -0.1377  -0.0000  -0.1154  -0.1434  -0.0000   0.0000
 226 C_h :1s     0.0343  -0.0054  -0.0000  -0.0357   0.0064   0.0000   0.0000
 227 C_h :1s     0.3664   0.0741   0.0000   0.1377   0.0984  -0.0000  -0.0000
 228 C_h :1s     0.2045  -0.0697  -0.0000  -0.0530  -0.1691  -0.0000  -0.0000
 229 C_h :1s     0.5035   0.1740  -0.0000   0.1148   0.1733  -0.0000  -0.0000
 230 C_h :2px    0.1749  -0.0315  -0.0000   0.0824   0.0107  -0.0000  -0.0000
 231 C_h :2py   -0.2426   0.0885   0.0000   0.0757  -0.0606   0.0000  -0.0000
 232 C_h :2pz    0.0000  -0.0000  -0.3432   0.0000  -0.0000  -0.2650  -0.0167
 233 C_h :2px   -0.0071   0.1335   0.0000   0.1282  -0.1086  -0.0000   0.0000
 234 C_h :2py   -0.1746   0.0479   0.0000  -0.0009  -0.1330   0.0000   0.0000
 235 C_h :2pz   -0.0000   0.0000   0.0131  -0.0000   0.0000   0.0114   0.0123
 236 C_h :2px   -0.2261   0.0230   0.0000   0.0192  -0.2239   0.0000   0.0000
 237 C_h :2py    0.3656  -0.0961  -0.0000  -0.1454   0.2091   0.0000  -0.0000
 238 C_h :2pz    0.0000  -0.0000   0.0369  -0.0000  -0.0000  -0.3839  -0.0460
 239 C_h :2px    0.0058   0.2077  -0.0000   0.0065  -0.0028   0.0000  -0.0000
 240 C_h :2py    0.0028  -0.0454  -0.0000   0.0112   0.0146   0.0000   0.0000
 241 C_h :2pz    0.0000  -0.0000   0.0339  -0.0000  -0.0000   0.0186   0.0164
 242 C_h :3d2-   0.0310  -0.0150   0.0000  -0.0013   0.0039   0.0000  -0.0000
 243 C_h :3d1-  -0.0000   0.0000   0.0079   0.0000   0.0000   0.0104   0.0002
 245 C_h :3d1+  -0.0000   0.0000  -0.0131   0.0000   0.0000  -0.0026  -0.0006
 247 C_h :3d2-  -0.1813   0.0009   0.0000  -0.0204  -0.0188   0.0000  -0.0000
 249 C_h :3d0    0.0101   0.0023   0.0000   0.0023   0.0038   0.0000  -0.0000
 251 C_h :3d2+  -0.0626   0.0249  -0.0000   0.0032  -0.0444   0.0000   0.0000
 252 C_h :3d2-   0.0076  -0.0483   0.0000  -0.1078  -0.0637   0.0000  -0.0000
 253 C_h :3d1-  -0.0000   0.0000   0.0091  -0.0000   0.0000  -0.3628   0.0244
 254 C_h :3d0    0.0166   0.0142   0.0000   0.0382   0.0877   0.0000   0.0000
 255 C_h :3d1+  -0.0000   0.0000   0.0550  -0.0000   0.0000  -0.4059   0.0293
 256 C_h :3d2+   0.0422   0.0047  -0.0000   0.0690  -0.0146  -0.0000  -0.0000
 258 C_i :1s     0.0633  -0.0404   0.0000   0.0176  -0.0528  -0.0000  -0.0000
 259 C_i :1s     0.1109   0.0485  -0.0000   0.2093  -0.0833  -0.0000   0.0000
 260 C_i :1s     0.0332  -0.1549  -0.0000   0.1653   0.2451  -0.0000  -0.0000
 261 C_i :1s     0.0711   0.1920  -0.0000   0.1095  -0.0031   0.0000   0.0000
 262 C_i :2px   -0.0454  -0.0169  -0.0000  -0.1343   0.0257   0.0000   0.0000
 263 C_i :2py    0.2080  -0.0763  -0.0000  -0.0654   0.0863  -0.0000   0.0000
 264 C_i :2pz    0.0000  -0.0000  -0.2549  -0.0000  -0.0000  -0.3134  -0.0099
 265 C_i :2px   -0.1637   0.0223   0.0000  -0.0764  -0.0278   0.0000   0.0000
 266 C_i :2py   -0.0789   0.0665   0.0000   0.0227  -0.1697   0.0000   0.0000
 267 C_i :2pz   -0.0000   0.0000   0.0224   0.0000   0.0000   0.0203  -0.0280
 268 C_i :2px    0.0651  -0.1821  -0.0000   0.1024   0.0082  -0.0000  -0.0000
 269 C_i :2py    0.0312  -0.0373   0.0000  -0.4025  -0.2582  -0.0000   0.0000
 270 C_i :2pz    0.0000  -0.0000  -0.2394  -0.0000  -0.0000  -0.4056  -0.0523
 271 C_i :2px   -0.1185  -0.1517   0.0000   0.1437  -0.0564  -0.0000  -0.0000
 272 C_i :2py    0.0266  -0.1153  -0.0000   0.0149   0.0275   0.0000  -0.0000
 273 C_i :2pz    0.0000  -0.0000  -0.0822  -0.0000  -0.0000  -0.0568   0.0674
 274 C_i :3d2-   0.0177  -0.0041  -0.0000  -0.0094   0.0005   0.0000  -0.0000
 275 C_i :3d1-   0.0000  -0.0000  -0.0108   0.0000  -0.0000  -0.0079  -0.0010
 279 C_i :3d2-  -0.0990  -0.0061  -0.0000  -0.0353  -0.0327   0.0000  -0.0000
 283 C_i :3d2+  -0.0100  -0.0180   0.0000  -0.0199   0.0130   0.0000  -0.0000
 284 C_i :3d2-  -0.0425   0.0173  -0.0000   0.1842   0.2139  -0.0000  -0.0000
 285 C_i :3d1-  -0.0000   0.0000   0.1471  -0.0000   0.0000  -0.1641   0.0221
 286 C_i :3d0    0.0201  -0.0055  -0.0000   0.0065  -0.0805   0.0000  -0.0000
 287 C_i :3d1+  -0.0000   0.0000   0.3016  -0.0000   0.0000  -0.2576   0.0170
 288 C_i :3d2+   0.0759  -0.0846  -0.0000  -0.1969  -0.1079  -0.0000  -0.0000
 290 C_j :1s     0.0000   0.0183   0.0000  -0.0996  -0.0049  -0.0000  -0.0000
 291 C_j :1s    -0.0663   0.0273   0.0000  -0.0327  -0.0672  -0.0000   0.0000
 292 C_j :1s     0.1078   0.0549  -0.0000   0.2343   0.0734   0.0000  -0.0000
 293 C_j :1s    -0.2283   0.4619  -0.0000   0.2210   0.0246   0.0000  -0.0000
 294 C_j :2px    0.0651   0.0000   0.0000   0.1491  -0.0649  -0.0000  -0.0000
 295 C_j :2py   -0.0230  -0.0083  -0.0000   0.2891   0.1182  -0.0000   0.0000
 296 C_j :2pz    0.0000  -0.0000  -0.1835  -0.0000  -0.0000  -0.2732  -0.0193
 297 C_j :2px   -0.0922   0.0168  -0.0000  -0.1359   0.0880  -0.0000   0.0000
 298 C_j :2py   -0.0389  -0.0088  -0.0000  -0.1127  -0.0656   0.0000  -0.0000
 300 C_j :2px    0.0467   0.0728   0.0000  -0.2143   0.2689  -0.0000   0.0000
 301 C_j :2py   -0.1246   0.0137  -0.0000   0.4757   0.4276   0.0000  -0.0000
 302 C_j :2pz   -0.0000   0.0000   0.4730  -0.0000   0.0000  -0.5349   0.1050
 303 C_j :2px    0.0271   0.1185   0.0000  -0.1011  -0.0333  -0.0000   0.0000
 304 C_j :2py   -0.0169   0.1647   0.0000  -0.0903  -0.0141  -0.0000   0.0000
 305 C_j :2pz   -0.0000   0.0000   0.0137   0.0000   0.0000  -0.0154  -0.0334
 306 C_j :3d2-   0.0125  -0.0034  -0.0000  -0.0153  -0.0038  -0.0000  -0.0000
 309 C_j :3d1+   0.0000  -0.0000  -0.0126  -0.0000  -0.0000  -0.0159   0.0025
 310 C_j :3d2+  -0.0020   0.0008  -0.0000   0.0171  -0.0015   0.0000  -0.0000
 311 C_j :3d2-  -0.0167  -0.0089  -0.0000  -0.0101   0.0264   0.0000  -0.0000
 314 C_j :3d1+  -0.0000   0.0000  -0.0067  -0.0000   0.0000  -0.0149   0.0252
 315 C_j :3d2+  -0.0118  -0.0014   0.0000  -0.0607  -0.0077  -0.0000  -0.0000
 316 C_j :3d2-   0.0066  -0.0115  -0.0000   0.0606  -0.0827   0.0000  -0.0000
 317 C_j :3d1-   0.0000  -0.0000   0.0245  -0.0000  -0.0000  -0.0474  -0.0012
 318 C_j :3d0   -0.0105  -0.0055  -0.0000   0.0459   0.0599  -0.0000   0.0000
 319 C_j :3d1+  -0.0000   0.0000   0.1121   0.0000   0.0000  -0.1110   0.0116
 320 C_j :3d2+   0.0247   0.0117   0.0000  -0.0338   0.0088  -0.0000  -0.0000
 322 N_a :1s    -0.0214  -0.0194   0.0000  -0.0018   0.0000   0.0000   0.0000
 324 N_a :1s    -0.0304   0.0652   0.0000  -0.0047   0.0154   0.0000   0.0000
 325 N_a :1s     0.0309  -0.3704  -0.0000  -0.0856   0.0520  -0.0000  -0.0000
 326 N_a :2px    0.0056   0.0252   0.0000   0.0032  -0.0006  -0.0000  -0.0000
 327 N_a :2py    0.0395   0.0250  -0.0000   0.0020  -0.0004   0.0000  -0.0000
 328 N_a :2pz   -0.0000   0.0000   0.1419   0.0000   0.0000  -0.2450  -0.0125
 331 N_a :2pz    0.0000  -0.0000   0.0118  -0.0000  -0.0000  -0.0218  -0.0011
 332 N_a :2px    0.0460   0.0436   0.0000   0.0010  -0.0339  -0.0000   0.0000
 333 N_a :2py    0.0096  -0.0250  -0.0000   0.0022  -0.0217   0.0000  -0.0000
 334 N_a :2pz   -0.0000   0.0000   0.0672   0.0000   0.0000  -0.0304  -0.0032
 335 N_a :2px    0.0145   0.0840   0.0000   0.0221  -0.0023   0.0000  -0.0000
 336 N_a :2py   -0.0286   0.0573   0.0000   0.0305  -0.0156  -0.0000  -0.0000
 337 N_a :2pz   -0.0000   0.0000  -0.0186   0.0000   0.0000  -0.0235  -0.0020
 350 N_a :3d0    0.0115   0.0102   0.0000   0.0002  -0.0048  -0.0000   0.0000
 351 N_a :3d1+   0.0000  -0.0000  -0.0100  -0.0000   0.0000  -0.0019   0.0001
 352 N_a :3d2+  -0.0061  -0.0158  -0.0000   0.0010   0.0018   0.0000  -0.0000
 354 N_b :1s     0.0153  -0.0070   0.0000  -0.0220  -0.0017   0.0000   0.0000
 355 N_b :1s    -0.0152   0.0030  -0.0000  -0.0615  -0.0174  -0.0000  -0.0000
 356 N_b :1s     0.0352  -0.0674  -0.0000  -0.2490  -0.0018  -0.0000   0.0000
 357 N_b :1s    -0.0732  -0.4232   0.0000  -0.4542  -0.2743   0.0000  -0.0000
 358 N_b :2px    0.0151  -0.0077   0.0000  -0.1001  -0.1083  -0.0000   0.0000
 359 N_b :2py    0.0307   0.0006  -0.0000  -0.2669  -0.0153   0.0000  -0.0000
 360 N_b :2pz    0.0000  -0.0000   0.0347  -0.0000  -0.0000   0.0354  -0.0063
 361 N_b :2px    0.0005  -0.0021  -0.0000  -0.0339   0.0364   0.0000  -0.0000
 362 N_b :2py   -0.0047   0.0016   0.0000  -0.0274  -0.0288  -0.0000   0.0000
 364 N_b :2px    0.0465  -0.0709  -0.0000  -0.0318  -0.3472   0.0000  -0.0000
 365 N_b :2py   -0.0649   0.0272   0.0000  -0.0700  -0.0187   0.0000   0.0000
 366 N_b :2pz    0.0000  -0.0000   0.0997  -0.0000  -0.0000   0.0231  -0.0363
 367 N_b :2px   -0.0291  -0.0919  -0.0000   0.0317   0.0332   0.0000  -0.0000
 368 N_b :2py   -0.0485  -0.1161  -0.0000   0.0531  -0.0515   0.0000   0.0000
 369 N_b :2pz   -0.0000   0.0000   0.0314   0.0000   0.0000   0.0944  -0.0162
 370 N_b :3d2-  -0.0022   0.0040  -0.0000  -0.0515   0.0184   0.0000  -0.0000
 371 N_b :3d1-   0.0000  -0.0000  -0.0063   0.0000  -0.0000  -0.0088  -0.0244
 373 N_b :3d1+  -0.0000   0.0000  -0.0038  -0.0000   0.0000  -0.0068   0.0515
 374 N_b :3d2+   0.0004  -0.0005  -0.0000   0.0343   0.0415   0.0000  -0.0000
 375 N_b :3d2-   0.0112  -0.0020  -0.0000  -0.0085  -0.0197  -0.0000  -0.0000
 379 N_b :3d2+   0.0055  -0.0016   0.0000   0.0113  -0.0215  -0.0000  -0.0000
 380 N_b :3d2-  -0.0270   0.0157   0.0000   0.0440   0.0691   0.0000   0.0000
 381 N_b :3d1-   0.0000  -0.0000   0.0158   0.0000  -0.0000   0.0217  -0.0110
 382 N_b :3d0   -0.0091   0.0025   0.0000   0.0347   0.0218   0.0000  -0.0000
 383 N_b :3d1+  -0.0000   0.0000   0.0456  -0.0000   0.0000   0.0142   0.0359
 384 N_b :3d2+   0.0216  -0.0067  -0.0000  -0.0561   0.0424  -0.0000   0.0000
 386 O_a :1s     0.0122  -0.0018  -0.0000  -0.0084  -0.0020  -0.0000  -0.0000
 387 O_a :1s     0.0092   0.0001   0.0000  -0.0321  -0.0253  -0.0000   0.0000
 388 O_a :1s    -0.0621   0.0444   0.0000   0.1130   0.1842  -0.0000   0.0000
 389 O_a :1s     0.0201   0.1678  -0.0000   0.2626   0.1634  -0.0000   0.0000
 390 O_a :2px   -0.0078   0.0052  -0.0000   0.1814   0.6632   0.0000  -0.0000
 391 O_a :2py   -0.0152  -0.0148  -0.0000   0.4418   0.3912   0.0000   0.0000
 392 O_a :2pz   -0.0000   0.0000   0.0570  -0.0000   0.0000   0.0648   0.6499
 393 O_a :2px   -0.0049   0.0004   0.0000   0.0282   0.0497  -0.0000   0.0000
 394 O_a :2py    0.0004   0.0003   0.0000   0.0083   0.0225  -0.0000  -0.0000
 395 O_a :2pz    0.0000  -0.0000   0.0013   0.0000  -0.0000   0.0020   0.0502
 396 O_a :2px    0.0132  -0.0048  -0.0000   0.0634   0.0755   0.0000  -0.0000
 397 O_a :2py    0.0081  -0.0049  -0.0000   0.0808   0.0049  -0.0000   0.0000
 398 O_a :2pz   -0.0000   0.0000  -0.0283   0.0000   0.0000  -0.0031   0.0509
 399 O_a :2px    0.0069   0.0251  -0.0000  -0.0095   0.0200  -0.0000  -0.0000
 400 O_a :2py    0.0071   0.0501  -0.0000   0.0241   0.0439  -0.0000  -0.0000
 401 O_a :2pz    0.0000  -0.0000  -0.0007  -0.0000  -0.0000  -0.0317  -0.0046
 403 O_a :3d1-   0.0000  -0.0000   0.0011   0.0000  -0.0000   0.0012   0.0114
 406 O_a :3d2+  -0.0002   0.0003  -0.0000  -0.0048  -0.0112   0.0000   0.0000
 407 O_a :3d2-  -0.0012   0.0005  -0.0000  -0.0008   0.0179   0.0000  -0.0000
 408 O_a :3d1-  -0.0000   0.0000   0.0030  -0.0000   0.0000   0.0025   0.0252
 410 O_a :3d1+   0.0000  -0.0000  -0.0011   0.0000  -0.0000  -0.0002  -0.0148
 411 O_a :3d2+   0.0013   0.0000   0.0000  -0.0116  -0.0248  -0.0000  -0.0000
 412 O_a :3d2-   0.0054  -0.0014  -0.0000   0.0093   0.0164  -0.0000   0.0000
 413 O_a :3d1-   0.0000  -0.0000  -0.0101   0.0000  -0.0000  -0.0054   0.0005
 419 O_b :1s     0.0005  -0.0010  -0.0000  -0.0400   0.0115   0.0000  -0.0000
 420 O_b :1s    -0.0108  -0.0115  -0.0000   0.1288  -0.1108   0.0000  -0.0000
 421 O_b :1s     0.0637   0.0109  -0.0000   0.1572   0.0837   0.0000  -0.0000
 422 O_b :2px   -0.0139   0.0061  -0.0000   0.1481   0.2176   0.0000  -0.0000
 423 O_b :2py    0.0626  -0.0608   0.0000   0.6949  -0.5261  -0.0000   0.0000
 424 O_b :2pz    0.0000   0.0000   0.0715   0.0000   0.0000   0.1149  -0.6395
 425 O_b :2px    0.0011  -0.0009  -0.0000  -0.0182   0.0090  -0.0000   0.0000
 426 O_b :2py    0.0070  -0.0030  -0.0000   0.0408  -0.0330   0.0000  -0.0000
 427 O_b :2pz    0.0000  -0.0000   0.0044  -0.0000  -0.0000   0.0078  -0.0494
 428 O_b :2px    0.0079   0.0081  -0.0000  -0.0070   0.0499   0.0000  -0.0000
 429 O_b :2py   -0.0080   0.0066  -0.0000   0.1362   0.0542  -0.0000   0.0000
 430 O_b :2pz   -0.0000   0.0000   0.0277   0.0000   0.0000   0.0122  -0.0203
 431 O_b :2px    0.0066  -0.0016   0.0000   0.0219   0.0022  -0.0000   0.0000
 432 O_b :2py    0.0346   0.0144   0.0000  -0.0229  -0.0047  -0.0000   0.0000
 433 O_b :2pz    0.0000  -0.0000  -0.0158  -0.0000  -0.0000  -0.0342   0.0168
 437 O_b :3d1+  -0.0000   0.0000   0.0022  -0.0000   0.0000   0.0032  -0.0138
 439 O_b :3d2-   0.0043  -0.0024  -0.0000   0.0213  -0.0202  -0.0000   0.0000
 442 O_b :3d1+   0.0000  -0.0000   0.0038   0.0000  -0.0000   0.0053  -0.0292
 443 O_b :3d2+  -0.0006   0.0001  -0.0000  -0.0024   0.0122   0.0000  -0.0000
 444 O_b :3d2-  -0.0005   0.0018  -0.0000   0.0155   0.0169   0.0000   0.0000
 446 O_b :3d0   -0.0013  -0.0010  -0.0000   0.0017  -0.0115   0.0000  -0.0000
 448 O_b :3d2+  -0.0013   0.0033   0.0000  -0.0103   0.0107  -0.0000   0.0000
 449 H_a :1s     0.1241   0.0546  -0.0000   0.0006  -0.0001   0.0000  -0.0000
 450 H_a :1s     0.0379   0.0021   0.0000  -0.0030  -0.0019  -0.0000  -0.0000
 451 H_a :1s     0.2951  -0.1013   0.0000   0.0175  -0.0483  -0.0000   0.0000
 452 H_a :1s     0.1500   0.1062  -0.0000  -0.0279   0.1061  -0.0000  -0.0000
 457 H_a :2py    0.0157   0.0092   0.0000   0.0000  -0.0012  -0.0000  -0.0000
 459 H_a :2px   -0.0204   0.0015  -0.0000   0.0079  -0.0026   0.0000  -0.0000
 460 H_a :2py    0.0703   0.0002   0.0000   0.0242  -0.0286  -0.0000   0.0000
 461 H_a :2pz    0.0000  -0.0000   0.0164   0.0000  -0.0000   0.0049  -0.0018
 462 H_b :1s     0.2700   0.1705  -0.0000   0.0021   0.0001  -0.0000   0.0000
 463 H_b :1s     0.1220   0.0322  -0.0000   0.0058   0.0077  -0.0000   0.0000
 464 H_b :1s     0.5686  -0.0491   0.0000  -0.0418   0.0786  -0.0000   0.0000
 465 H_b :1s    -0.2588   0.0977   0.0000   0.1356  -0.0633   0.0000  -0.0000
 469 H_b :2px    0.0291   0.0100   0.0000  -0.0015   0.0009  -0.0000   0.0000
 470 H_b :2py   -0.0346  -0.0158   0.0000  -0.0022  -0.0002   0.0000   0.0000
 472 H_b :2px    0.0995   0.0620  -0.0000  -0.0225  -0.0570   0.0000  -0.0000
 473 H_b :2py   -0.0540   0.0247  -0.0000  -0.0131  -0.0285   0.0000  -0.0000
 474 H_b :2pz   -0.0000   0.0000   0.0009   0.0000   0.0000  -0.0129  -0.0004
 475 H_c :1s     0.0379   0.0092  -0.0000  -0.0004   0.0001   0.0000  -0.0000
 476 H_c :1s     0.0145   0.0028   0.0000   0.0005  -0.0021  -0.0000   0.0000
 477 H_c :1s    -0.0964  -0.0098   0.0000   0.0360   0.0160   0.0000  -0.0000
 478 H_c :1s     0.0828  -0.0334  -0.0000  -0.0428   0.0352   0.0000   0.0000
 485 H_c :2px    0.0197   0.0082  -0.0000  -0.0187  -0.0087   0.0000   0.0000
 486 H_c :2py    0.0178   0.0013  -0.0000  -0.0080   0.0028  -0.0000   0.0000
 487 H_c :2pz    0.0000  -0.0000   0.0121  -0.0000  -0.0000   0.0130   0.0000
 488 H_d :1s    -0.0107   0.0170   0.0000   0.0029  -0.0005  -0.0000  -0.0000
 489 H_d :1s    -0.0172  -0.0040  -0.0000   0.0013  -0.0013   0.0000   0.0000
 490 H_d :1s    -0.0152   0.1486   0.0000   0.0062  -0.0022  -0.0000   0.0000
 491 H_d :1s    -0.0522  -0.0052  -0.0000   0.0310  -0.0381   0.0000  -0.0000
 495 H_d :2px    0.0117   0.0035  -0.0000  -0.0010   0.0004   0.0000  -0.0000
 498 H_d :2px   -0.0053  -0.0322  -0.0000  -0.0025   0.0033   0.0000  -0.0000
 499 H_d :2py    0.0071  -0.0177  -0.0000   0.0062   0.0003  -0.0000   0.0000
 501 H_e :1s     0.3107   0.2961   0.0000   0.0062   0.0000  -0.0000   0.0000
 502 H_e :1s     0.1833   0.1203  -0.0000   0.0027   0.0050   0.0000   0.0000
 503 H_e :1s     0.3209   0.1026  -0.0000  -0.0667   0.0724   0.0000  -0.0000
 504 H_e :1s    -0.2548  -0.1651   0.0000  -0.0055  -0.1666   0.0000   0.0000
 508 H_e :2px   -0.0302  -0.0118   0.0000   0.0031  -0.0037   0.0000  -0.0000
 509 H_e :2py    0.0530   0.0494  -0.0000   0.0034  -0.0018   0.0000   0.0000
 511 H_e :2px   -0.0360   0.0159  -0.0000   0.0640  -0.0152   0.0000  -0.0000
 512 H_e :2py   -0.0422   0.0102  -0.0000   0.0306   0.0585   0.0000  -0.0000
 513 H_e :2pz   -0.0000   0.0000  -0.0579   0.0000   0.0000  -0.0254   0.0034
 514 H_f :1s     0.2098   0.3855  -0.0000   0.0076   0.0004   0.0000  -0.0000
 515 H_f :1s     0.1182   0.1518   0.0000  -0.0082  -0.0082   0.0000  -0.0000
 516 H_f :1s     0.4751   0.5016  -0.0000  -0.0697  -0.1677   0.0000  -0.0000
 517 H_f :1s     0.2524  -0.0738  -0.0000  -0.2025   0.0262  -0.0000   0.0000
 521 H_f :2px    0.0246   0.0279  -0.0000  -0.0042  -0.0012   0.0000  -0.0000
 522 H_f :2py   -0.0310  -0.0526  -0.0000  -0.0005   0.0014   0.0000  -0.0000
 524 H_f :2px    0.0063   0.1119   0.0000   0.0257  -0.0647  -0.0000  -0.0000
 525 H_f :2py   -0.0376   0.0075  -0.0000   0.0090  -0.0346   0.0000  -0.0000
 526 H_f :2pz   -0.0000   0.0000  -0.0327  -0.0000   0.0000  -0.0238   0.0006
 527 H_g :1s    -0.0437   0.3667  -0.0000   0.0129  -0.0014   0.0000  -0.0000
 528 H_g :1s    -0.0181   0.1476  -0.0000   0.0150   0.0228  -0.0000   0.0000
 529 H_g :1s     0.0310   0.5659  -0.0000   0.1119   0.0655  -0.0000  -0.0000
 530 H_g :1s    -0.0022   0.1143  -0.0000   0.0582   0.0336  -0.0000   0.0000
 534 H_g :2px    0.0039  -0.0212   0.0000   0.0065  -0.0066  -0.0000   0.0000
 535 H_g :2py   -0.0063   0.0563  -0.0000   0.0087   0.0029  -0.0000  -0.0000
 537 H_g :2px   -0.1532  -0.0481  -0.0000   0.0617   0.0678   0.0000  -0.0000
 538 H_g :2py   -0.0530   0.0649  -0.0000   0.0693  -0.0292  -0.0000  -0.0000
 539 H_g :2pz    0.0000  -0.0000   0.0701  -0.0000  -0.0000  -0.0142  -0.0100
 540 H_h :1s    -0.2684   0.3122  -0.0000   0.0103  -0.0087  -0.0000   0.0000
 541 H_h :1s    -0.1368   0.1231   0.0000   0.0168  -0.0276   0.0000  -0.0000
 542 H_h :1s    -0.5202   0.3673   0.0000   0.1048   0.0396   0.0000  -0.0000
 543 H_h :1s    -0.1523  -0.0866   0.0000   0.1040   0.0766   0.0000  -0.0000
 547 H_h :2px   -0.0243   0.0210   0.0000  -0.0022  -0.0017   0.0000   0.0000
 548 H_h :2py    0.0401  -0.0460  -0.0000  -0.0066   0.0029  -0.0000   0.0000
 550 H_h :2px   -0.0657   0.0139   0.0000   0.0208   0.1062  -0.0000   0.0000
 551 H_h :2py    0.0202  -0.0514   0.0000   0.0063   0.0085  -0.0000   0.0000
 552 H_h :2pz    0.0000  -0.0000   0.0621   0.0000  -0.0000  -0.0069  -0.0013
 553 H_i :1s    -0.3608   0.1962   0.0000   0.0102  -0.0293  -0.0000  -0.0000
 554 H_i :1s    -0.1913   0.0496   0.0000  -0.0159  -0.0353  -0.0000  -0.0000
 555 H_i :1s    -0.7340   0.1650   0.0000   0.0616   0.1609  -0.0000   0.0000
 556 H_i :1s     0.2283  -0.1213   0.0000  -0.1166   0.0456   0.0000  -0.0000
 560 H_i :2px    0.0390  -0.0083   0.0000   0.0150   0.0015   0.0000   0.0000
 561 H_i :2py   -0.0519   0.0263   0.0000   0.0087  -0.0077  -0.0000  -0.0000
[...]

       No.  Residual tot.,    conf., and orb.    Bnorm      Frequency 
      ----------------------------------------------------------------
         1    5.31437D-02  0.00D+00  5.31D-02  2.36D+01    0.00000D+00
         2    5.53259D-02  0.00D+00  5.53D-02  2.45D+01    2.15000D-02
         3    6.28999D-02  0.00D+00  6.29D-02  2.74D+01    4.30000D-02

 ** RSPCTL MICROITERATION NUMBER    7

       No.  Residual tot.,    conf., and orb.    Bnorm      Frequency 
      ----------------------------------------------------------------
         1    1.68469D-02  0.00D+00  1.68D-02  2.36D+01    0.00000D+00
         2    1.75596D-02  0.00D+00  1.76D-02  2.45D+01    2.15000D-02
         3    2.00422D-02  0.00D+00  2.00D-02  2.74D+01    4.30000D-02

 *** THE REQUESTED    3 SOLUTION VECTORS CONVERGED

 Convergence of RSP solution vectors, threshold = 1.00D-03
 ---------------------------------------------------------------
 (dimension of paired reduced space:   42)
 RSP solution vector no.    1; norm of residual   7.14D-04
 RSP solution vector no.    2; norm of residual   7.18D-04
 RSP solution vector no.    3; norm of residual   7.32D-04

 *** RSPCTL MICROITERATIONS CONVERGED

@ QRLRVE: SINGLET SOLUTION FOR SYMMETRY    1  ( A  )    LABEL   YDIPLEN     FREQUENCY   0.000000D+00

@ QRLRVE:  << XDIPLEN  ; YDIPLEN  >> (   0.00000):     199.152360322    

@ QRLRVE:  << YDIPLEN  ; YDIPLEN  >> (   0.00000):     240.805024680    

@ QRLRVE:  << ZDIPLEN  ; YDIPLEN  >> (   0.00000):    2.505567010366E-14

@ QRLRVE: SINGLET SOLUTION FOR SYMMETRY    1  ( A  )    LABEL   YDIPLEN     FREQUENCY   0.215000D-01

@ QRLRVE:  << XDIPLEN  ; YDIPLEN  >> (   0.02150):     204.885540577    

@ QRLRVE:  << YDIPLEN  ; YDIPLEN  >> (   0.02150):     244.376425725    

@ QRLRVE:  << ZDIPLEN  ; YDIPLEN  >> (   0.02150):    2.522004808097E-14

@ QRLRVE: SINGLET SOLUTION FOR SYMMETRY    1  ( A  )    LABEL   YDIPLEN     FREQUENCY   0.430000D-01

@ QRLRVE:  << XDIPLEN  ; YDIPLEN  >> (   0.04300):     224.246416121    

@ QRLRVE:  << YDIPLEN  ; YDIPLEN  >> (   0.04300):     256.367943490    

@ QRLRVE:  << ZDIPLEN  ; YDIPLEN  >> (   0.04300):    2.571866299021E-14


 QRLRVE -- linear response calculation for symmetry  1  ( A  )
 QRLRVE -- operator label : ZDIPLEN 
 QRLRVE -- operator spin  :   0
 QRLRVE -- frequencies :  0.000000  0.021500  0.043000



 ---  SOLVING SETS OF LINEAR EQUATIONS FOR LINEAR RESPONSE PROPERTIES ---

 Operator symmetry = 1  ( A  ); triplet =   F


 ** RSPCTL MICROITERATION NUMBER    1

       No.  Residual tot.,    conf., and orb.    Bnorm      Frequency 
      ----------------------------------------------------------------
         1    2.95344D+00  0.00D+00  2.95D+00  7.50D+00    0.00000D+00
         2    2.95678D+00  0.00D+00  2.96D+00  7.53D+00    2.15000D-02
         3    2.96690D+00  0.00D+00  2.97D+00  7.62D+00    4.30000D-02

 ** RSPCTL MICROITERATION NUMBER    2

       No.  Residual tot.,    conf., and orb.    Bnorm      Frequency 
      ----------------------------------------------------------------
         1    6.46942D-01  0.00D+00  6.47D-01  7.86D+00    0.00000D+00
         2    6.49233D-01  0.00D+00  6.49D-01  7.89D+00    2.15000D-02
         3    6.56212D-01  0.00D+00  6.56D-01  7.99D+00    4.30000D-02

 ** RSPCTL MICROITERATION NUMBER    3

       No.  Residual tot.,    conf., and orb.    Bnorm      Frequency 
      ----------------------------------------------------------------
         1    1.37230D-01  0.00D+00  1.37D-01  7.89D+00    0.00000D+00
         2    1.38442D-01  0.00D+00  1.38D-01  7.92D+00    2.15000D-02
         3    1.42171D-01  0.00D+00  1.42D-01  8.02D+00    4.30000D-02

 ** RSPCTL MICROITERATION NUMBER    4

       No.  Residual tot.,    conf., and orb.    Bnorm      Frequency 
      ----------------------------------------------------------------
         1    3.83718D-02  0.00D+00  3.84D-02  7.90D+00    0.00000D+00
         2    3.92971D-02  0.00D+00  3.93D-02  7.93D+00    2.15000D-02
         3    4.22291D-02  0.00D+00  4.22D-02  8.03D+00    4.30000D-02

 ** RSPCTL MICROITERATION NUMBER    5

       No.  Residual tot.,    conf., and orb.    Bnorm      Frequency 
      ----------------------------------------------------------------
         1    1.50853D-02  0.00D+00  1.51D-02  7.90D+00    0.00000D+00
         2    1.56798D-02  0.00D+00  1.57D-02  7.93D+00    2.15000D-02
         3    1.75829D-02  0.00D+00  1.76D-02  8.03D+00    4.30000D-02

 ** RSPCTL MICROITERATION NUMBER    6

       No.  Residual tot.,    conf., and orb.    Bnorm      Frequency 
      ----------------------------------------------------------------
         1    5.08068D-03  0.00D+00  5.08D-03  7.90D+00    0.00000D+00
         2    5.36718D-03  0.00D+00  5.37D-03  7.93D+00    2.15000D-02
         3    6.30214D-03  0.00D+00  6.30D-03  8.03D+00    4.30000D-02

 *** THE REQUESTED    3 SOLUTION VECTORS CONVERGED

 Convergence of RSP solution vectors, threshold = 1.00D-03
 ---------------------------------------------------------------
 (dimension of paired reduced space:   36)
 RSP solution vector no.    1; norm of residual   6.43D-04
 RSP solution vector no.    2; norm of residual   6.77D-04
 RSP solution vector no.    3; norm of residual   7.85D-04

 *** RSPCTL MICROITERATIONS CONVERGED

@ QRLRVE: SINGLET SOLUTION FOR SYMMETRY    1  ( A  )    LABEL   ZDIPLEN     FREQUENCY   0.000000D+00

@ QRLRVE:  << XDIPLEN  ; ZDIPLEN  >> (   0.00000):    1.793138163010E-14

@ QRLRVE:  << YDIPLEN  ; ZDIPLEN  >> (   0.00000):    1.881554285272E-14

@ QRLRVE:  << ZDIPLEN  ; ZDIPLEN  >> (   0.00000):     90.1979841940    

@ QRLRVE: SINGLET SOLUTION FOR SYMMETRY    1  ( A  )    LABEL   ZDIPLEN     FREQUENCY   0.215000D-01

@ QRLRVE:  << XDIPLEN  ; ZDIPLEN  >> (   0.02150):    1.805131732600E-14

@ QRLRVE:  << YDIPLEN  ; ZDIPLEN  >> (   0.02150):    1.887794280529E-14

@ QRLRVE:  << ZDIPLEN  ; ZDIPLEN  >> (   0.02150):     90.3427322621    

@ QRLRVE: SINGLET SOLUTION FOR SYMMETRY    1  ( A  )    LABEL   ZDIPLEN     FREQUENCY   0.430000D-01

@ QRLRVE:  << XDIPLEN  ; ZDIPLEN  >> (   0.04300):    1.840798296220E-14

@ QRLRVE:  << YDIPLEN  ; ZDIPLEN  >> (   0.04300):    1.902975008370E-14

@ QRLRVE:  << ZDIPLEN  ; ZDIPLEN  >> (   0.04300):     90.7822921822    
 
 ======================================================================
 ---  L I N E A R   R E S P O N S E   F U N C T I O N S --- 
 ======================================================================

 The -<<A;B>>(omega_b) functions from vectors generated
 in a *QUADRA calculation of <<A;B,C>>(omega_b,omega_c)

 Note: the accuracy of off-diagonal elements will be linear
 in the convergence threshold THCLR =  1.00D-03


 Perturbation symmetry.     KSYMOP:           1
 Perturbation spin symmetry.TRPLET:           F
 Orbital variables.         KZWOPT:       26775
 Configuration variables.   KZCONF:           0
 Total number of variables. KZVAR :       26775

@ Singlet linear response function in a.u.

@ A operator, symmetry, frequency:   XDIPLEN    1 -0.000000
@ B operator, symmetry, frequency:   XDIPLEN    1  0.000000

@ Value of linear response -<<A;B>>(omega):     476.093031133653

@ Singlet linear response function in a.u.

@ A operator, symmetry, frequency:   YDIPLEN    1 -0.000000
@ B operator, symmetry, frequency:   XDIPLEN    1  0.000000

@ Value of linear response -<<A;B>>(omega):     199.143971286079

@ Singlet linear response function in a.u.

@ A operator, symmetry, frequency:   ZDIPLEN    1 -0.000000
@ B operator, symmetry, frequency:   XDIPLEN    1  0.000000

@ Value of linear response -<<A;B>>(omega):       0.000000000000

@ Singlet linear response function in a.u.

@ A operator, symmetry, frequency:   XDIPLEN    1 -0.021500
@ B operator, symmetry, frequency:   XDIPLEN    1  0.021500

@ Value of linear response -<<A;B>>(omega):     486.242820997628

@ Singlet linear response function in a.u.

@ A operator, symmetry, frequency:   YDIPLEN    1 -0.021500
@ B operator, symmetry, frequency:   XDIPLEN    1  0.021500

@ Value of linear response -<<A;B>>(omega):     204.876494936703

@ Singlet linear response function in a.u.

@ A operator, symmetry, frequency:   ZDIPLEN    1 -0.021500
@ B operator, symmetry, frequency:   XDIPLEN    1  0.021500

@ Value of linear response -<<A;B>>(omega):       0.000000000000

@ Singlet linear response function in a.u.

@ A operator, symmetry, frequency:   XDIPLEN    1 -0.000000
@ B operator, symmetry, frequency:   YDIPLEN    1  0.000000

@ Value of linear response -<<A;B>>(omega):     199.152360322431

@ Singlet linear response function in a.u.

@ A operator, symmetry, frequency:   YDIPLEN    1 -0.000000
@ B operator, symmetry, frequency:   YDIPLEN    1  0.000000

@ Value of linear response -<<A;B>>(omega):     240.805024679513

@ Singlet linear response function in a.u.

@ A operator, symmetry, frequency:   ZDIPLEN    1 -0.000000
@ B operator, symmetry, frequency:   YDIPLEN    1  0.000000

@ Value of linear response -<<A;B>>(omega):       0.000000000000

@ Singlet linear response function in a.u.

@ A operator, symmetry, frequency:   XDIPLEN    1 -0.021500
@ B operator, symmetry, frequency:   YDIPLEN    1  0.021500

@ Value of linear response -<<A;B>>(omega):     204.885540577227

@ Singlet linear response function in a.u.

@ A operator, symmetry, frequency:   YDIPLEN    1 -0.021500
@ B operator, symmetry, frequency:   YDIPLEN    1  0.021500

@ Value of linear response -<<A;B>>(omega):     244.376425724855

@ Singlet linear response function in a.u.

@ A operator, symmetry, frequency:   ZDIPLEN    1 -0.021500
@ B operator, symmetry, frequency:   YDIPLEN    1  0.021500

@ Value of linear response -<<A;B>>(omega):       0.000000000000

@ Singlet linear response function in a.u.

@ A operator, symmetry, frequency:   XDIPLEN    1 -0.000000
@ B operator, symmetry, frequency:   ZDIPLEN    1  0.000000

@ Value of linear response -<<A;B>>(omega):       0.000000000000

@ Singlet linear response function in a.u.

@ A operator, symmetry, frequency:   YDIPLEN    1 -0.000000
@ B operator, symmetry, frequency:   ZDIPLEN    1  0.000000

@ Value of linear response -<<A;B>>(omega):       0.000000000000

@ Singlet linear response function in a.u.

@ A operator, symmetry, frequency:   ZDIPLEN    1 -0.000000
@ B operator, symmetry, frequency:   ZDIPLEN    1  0.000000

@ Value of linear response -<<A;B>>(omega):      90.197984193974

@ Singlet linear response function in a.u.

@ A operator, symmetry, frequency:   XDIPLEN    1 -0.021500
@ B operator, symmetry, frequency:   ZDIPLEN    1  0.021500

@ Value of linear response -<<A;B>>(omega):       0.000000000000

@ Singlet linear response function in a.u.

@ A operator, symmetry, frequency:   YDIPLEN    1 -0.021500
@ B operator, symmetry, frequency:   ZDIPLEN    1  0.021500

@ Value of linear response -<<A;B>>(omega):       0.000000000000

@ Singlet linear response function in a.u.

@ A operator, symmetry, frequency:   ZDIPLEN    1 -0.021500
@ B operator, symmetry, frequency:   ZDIPLEN    1  0.021500

@ Value of linear response -<<A;B>>(omega):      90.342732262052


  Results from quadratic response calculation
 --------------------------------------------

@ B-freq = 0.000000  C-freq = 0.000000     beta(X;X,X) =   5437.27281852
@ B-freq = 0.000000  C-freq = 0.000000     beta(Y;X,X) =   5611.01969264
@ B-freq = 0.000000  C-freq = 0.000000     beta(Z;X,X) =     -0.00000000
@ B-freq = 0.021500  C-freq = 0.000000     beta(X;X,X) =   5836.23346183
@ B-freq = 0.021500  C-freq = 0.000000     beta(Y;X,X) =   5926.89106049
@ B-freq = 0.021500  C-freq = 0.000000     beta(Z;X,X) =     -0.00000000
@ B-freq = 0.000000  C-freq = 0.000000     beta(X;Y,X) = beta(Y,X,X)
@ B-freq = 0.000000  C-freq = 0.000000     beta(X;Y,X) =   5611.01847968
@ B-freq = 0.000000  C-freq = 0.000000     beta(Y;Y,X) =   4938.00755274
@ B-freq = 0.000000  C-freq = 0.000000     beta(Z;Y,X) =     -0.00000000
@ B-freq = 0.021500  C-freq = 0.000000     beta(X;Y,X) =   5926.88977885
@ B-freq = 0.021500  C-freq = 0.000000     beta(Y;Y,X) =   5174.55514698
@ B-freq = 0.021500  C-freq = 0.000000     beta(Z;Y,X) =     -0.00000000
@ B-freq = 0.000000  C-freq = 0.000000     beta(X;Z,X) = beta(Z,X,X)
@ B-freq = 0.000000  C-freq = 0.000000     beta(Y;Z,X) = beta(Z,Y,X)
@ B-freq = 0.000000  C-freq = 0.000000     beta(X;Z,X) =     -0.00000000
@ B-freq = 0.000000  C-freq = 0.000000     beta(Y;Z,X) =     -0.00000000
@ B-freq = 0.000000  C-freq = 0.000000     beta(Z;Z,X) =    -35.86085061
@ B-freq = 0.021500  C-freq = 0.000000     beta(X;Z,X) =     -0.00000000
@ B-freq = 0.021500  C-freq = 0.000000     beta(Y;Z,X) =     -0.00000000
@ B-freq = 0.021500  C-freq = 0.000000     beta(Z;Z,X) =    -36.56648581
@ B-freq = 0.000000  C-freq = 0.021500     beta(X;X,X) = beta(X,X,X)
@ B-freq = 0.000000  C-freq = 0.021500     beta(Y;X,X) = beta(Y,X,X)
@ B-freq = 0.000000  C-freq = 0.021500     beta(Z;X,X) = beta(Z,X,X)
@ B-freq = 0.021500  C-freq = 0.021500     beta(X;X,X) =   6757.62487260
@ B-freq = 0.021500  C-freq = 0.021500     beta(Y;X,X) =   6571.54227999
@ B-freq = 0.021500  C-freq = 0.021500     beta(Z;X,X) =     -0.00000000
@ B-freq = 0.000000  C-freq = 0.021500     beta(X;Y,X) =   5992.84147909
@ B-freq = 0.000000  C-freq = 0.021500     beta(Y;Y,X) =   5218.17787387
@ B-freq = 0.000000  C-freq = 0.021500     beta(Z;Y,X) =     -0.00000000
@ B-freq = 0.021500  C-freq = 0.021500     beta(X;Y,X) =   6797.30256408
@ B-freq = 0.021500  C-freq = 0.021500     beta(Y;Y,X) =   5758.11861196
@ B-freq = 0.021500  C-freq = 0.021500     beta(Z;Y,X) =     -0.00000000
@ B-freq = 0.000000  C-freq = 0.021500     beta(X;Z,X) =     -0.00000000
@ B-freq = 0.000000  C-freq = 0.021500     beta(Y;Z,X) =     -0.00000000
@ B-freq = 0.000000  C-freq = 0.021500     beta(Z;Z,X) =    -36.86270706
@ B-freq = 0.021500  C-freq = 0.021500     beta(X;Z,X) =     -0.00000000
@ B-freq = 0.021500  C-freq = 0.021500     beta(Y;Z,X) =     -0.00000000
@ B-freq = 0.021500  C-freq = 0.021500     beta(Z;Z,X) =    -38.35952372
@ B-freq = 0.000000  C-freq = 0.000000     beta(X;X,Y) = beta(Y,X,X)
@ B-freq = 0.000000  C-freq = 0.000000     beta(Y;X,Y) = beta(Y,Y,X)
@ B-freq = 0.000000  C-freq = 0.000000     beta(Z;X,Y) = beta(Z,Y,X)
@ B-freq = 0.021500  C-freq = 0.000000     beta(X;X,Y) = beta(X,Y,X)
@ B-freq = 0.021500  C-freq = 0.000000     beta(Y;X,Y) = beta(Y,Y,X)
@ B-freq = 0.021500  C-freq = 0.000000     beta(Z;X,Y) = beta(Z,Y,X)
@ B-freq = 0.000000  C-freq = 0.000000     beta(X;Y,Y) = beta(Y,Y,X)
@ B-freq = 0.000000  C-freq = 0.000000     beta(X;Y,Y) =   4938.00684005
@ B-freq = 0.000000  C-freq = 0.000000     beta(Y;Y,Y) =   3939.02901012
@ B-freq = 0.000000  C-freq = 0.000000     beta(Z;Y,Y) =     -0.00000000
@ B-freq = 0.021500  C-freq = 0.000000     beta(X;Y,Y) =   5218.17712137
@ B-freq = 0.021500  C-freq = 0.000000     beta(Y;Y,Y) =   4138.22350657
@ B-freq = 0.021500  C-freq = 0.000000     beta(Z;Y,Y) =     -0.00000000
@ B-freq = 0.000000  C-freq = 0.000000     beta(X;Z,Y) = beta(Z,Y,X)
@ B-freq = 0.000000  C-freq = 0.000000     beta(Y;Z,Y) = beta(Z,Y,Y)
@ B-freq = 0.000000  C-freq = 0.000000     beta(X;Z,Y) =     -0.00000000
@ B-freq = 0.000000  C-freq = 0.000000     beta(Y;Z,Y) =     -0.00000000
@ B-freq = 0.000000  C-freq = 0.000000     beta(Z;Z,Y) =    -29.75933504
@ B-freq = 0.021500  C-freq = 0.000000     beta(X;Z,Y) =     -0.00000000
@ B-freq = 0.021500  C-freq = 0.000000     beta(Y;Z,Y) =     -0.00000000
@ B-freq = 0.021500  C-freq = 0.000000     beta(Z;Z,Y) =    -30.23611704
@ B-freq = 0.000000  C-freq = 0.021500     beta(X;X,Y) = beta(X,Y,X)
@ B-freq = 0.000000  C-freq = 0.021500     beta(Y;X,Y) = beta(Y,Y,X)
@ B-freq = 0.000000  C-freq = 0.021500     beta(Z;X,Y) = beta(Z,Y,X)
@ B-freq = 0.021500  C-freq = 0.021500     beta(X;X,Y) = beta(X,Y,X)
@ B-freq = 0.021500  C-freq = 0.021500     beta(Y;X,Y) = beta(Y,Y,X)
@ B-freq = 0.021500  C-freq = 0.021500     beta(Z;X,Y) = beta(Z,Y,X)
@ B-freq = 0.000000  C-freq = 0.021500     beta(X;Y,Y) = beta(X,Y,Y)
@ B-freq = 0.000000  C-freq = 0.021500     beta(Y;Y,Y) = beta(Y,Y,Y)
@ B-freq = 0.000000  C-freq = 0.021500     beta(Z;Y,Y) = beta(Z,Y,Y)
@ B-freq = 0.021500  C-freq = 0.021500     beta(X;Y,Y) =   5907.66409965
@ B-freq = 0.021500  C-freq = 0.021500     beta(Y;Y,Y) =   4589.54294904
@ B-freq = 0.021500  C-freq = 0.021500     beta(Z;Y,Y) =     -0.00000000
@ B-freq = 0.000000  C-freq = 0.021500     beta(X;Z,Y) =     -0.00000000
@ B-freq = 0.000000  C-freq = 0.021500     beta(Y;Z,Y) =     -0.00000000
@ B-freq = 0.000000  C-freq = 0.021500     beta(Z;Z,Y) =    -30.39401670
@ B-freq = 0.021500  C-freq = 0.021500     beta(X;Z,Y) =     -0.00000000
@ B-freq = 0.021500  C-freq = 0.021500     beta(Y;Z,Y) =     -0.00000000
@ B-freq = 0.021500  C-freq = 0.021500     beta(Z;Z,Y) =    -31.39986694
@ B-freq = 0.000000  C-freq = 0.000000     beta(X;X,Z) = beta(Z,X,X)
@ B-freq = 0.000000  C-freq = 0.000000     beta(Y;X,Z) = beta(Z,Y,X)
@ B-freq = 0.000000  C-freq = 0.000000     beta(Z;X,Z) = beta(Z,Z,X)
@ B-freq = 0.021500  C-freq = 0.000000     beta(X;X,Z) = beta(X,Z,X)
@ B-freq = 0.021500  C-freq = 0.000000     beta(Y;X,Z) = beta(Y,Z,X)
@ B-freq = 0.021500  C-freq = 0.000000     beta(Z;X,Z) = beta(Z,Z,X)
@ B-freq = 0.000000  C-freq = 0.000000     beta(X;Y,Z) = beta(Z,Y,X)
@ B-freq = 0.000000  C-freq = 0.000000     beta(Y;Y,Z) = beta(Z,Y,Y)
@ B-freq = 0.000000  C-freq = 0.000000     beta(Z;Y,Z) = beta(Z,Z,Y)
@ B-freq = 0.021500  C-freq = 0.000000     beta(X;Y,Z) = beta(X,Z,Y)
@ B-freq = 0.021500  C-freq = 0.000000     beta(Y;Y,Z) = beta(Y,Z,Y)
@ B-freq = 0.021500  C-freq = 0.000000     beta(Z;Y,Z) = beta(Z,Z,Y)
@ B-freq = 0.000000  C-freq = 0.000000     beta(X;Z,Z) = beta(Z,Z,X)
@ B-freq = 0.000000  C-freq = 0.000000     beta(Y;Z,Z) = beta(Z,Z,Y)
@ B-freq = 0.000000  C-freq = 0.000000     beta(X;Z,Z) =    -35.86084819
@ B-freq = 0.000000  C-freq = 0.000000     beta(Y;Z,Z) =    -29.75932573
@ B-freq = 0.000000  C-freq = 0.000000     beta(Z;Z,Z) =     -0.00000000
@ B-freq = 0.021500  C-freq = 0.000000     beta(X;Z,Z) =    -36.86270414
@ B-freq = 0.021500  C-freq = 0.000000     beta(Y;Z,Z) =    -30.39400696
@ B-freq = 0.021500  C-freq = 0.000000     beta(Z;Z,Z) =     -0.00000000
@ B-freq = 0.000000  C-freq = 0.021500     beta(X;X,Z) = beta(X,Z,X)
@ B-freq = 0.000000  C-freq = 0.021500     beta(Y;X,Z) = beta(Y,Z,X)
@ B-freq = 0.000000  C-freq = 0.021500     beta(Z;X,Z) = beta(Z,Z,X)
@ B-freq = 0.021500  C-freq = 0.021500     beta(X;X,Z) = beta(X,Z,X)
@ B-freq = 0.021500  C-freq = 0.021500     beta(Y;X,Z) = beta(Y,Z,X)
@ B-freq = 0.021500  C-freq = 0.021500     beta(Z;X,Z) = beta(Z,Z,X)
@ B-freq = 0.000000  C-freq = 0.021500     beta(X;Y,Z) = beta(X,Z,Y)
@ B-freq = 0.000000  C-freq = 0.021500     beta(Y;Y,Z) = beta(Y,Z,Y)
@ B-freq = 0.000000  C-freq = 0.021500     beta(Z;Y,Z) = beta(Z,Z,Y)
@ B-freq = 0.021500  C-freq = 0.021500     beta(X;Y,Z) = beta(X,Z,Y)
@ B-freq = 0.021500  C-freq = 0.021500     beta(Y;Y,Z) = beta(Y,Z,Y)
@ B-freq = 0.021500  C-freq = 0.021500     beta(Z;Y,Z) = beta(Z,Z,Y)
@ B-freq = 0.000000  C-freq = 0.021500     beta(X;Z,Z) = beta(X,Z,Z)
@ B-freq = 0.000000  C-freq = 0.021500     beta(Y;Z,Z) = beta(Y,Z,Z)
@ B-freq = 0.000000  C-freq = 0.021500     beta(Z;Z,Z) = beta(Z,Z,Z)
@ B-freq = 0.021500  C-freq = 0.021500     beta(X;Z,Z) =    -39.41505663
@ B-freq = 0.021500  C-freq = 0.021500     beta(Y;Z,Z) =    -31.96762432
@ B-freq = 0.021500  C-freq = 0.021500     beta(Z;Z,Z) =     -0.00000000

  Total CPU  time used in RESPONSE:  9 minutes 49 seconds
  Total wall time used in RESPONSE:  9 minutes 52 seconds


                   .-------------------------------------------.
                   | End of Dynamic Property Section (RESPONS) |
                   `-------------------------------------------'

  Total CPU  time used in DALTON: 12 minutes 27 seconds
  Total wall time used in DALTON: 12 minutes 32 seconds

 
     Date and time (Linux)  : Sat May 10 02:16:06 2025
     Host name              : xm046                                   
