

     ************************************************************************
     *************** Dalton - An Electronic Structure Program ***************
     ************************************************************************

    This is output from DALTON release Dalton2020.0 (2020)
         ( Web site: http://daltonprogram.org )

   ----------------------------------------------------------------------------

    NOTE:
     
    Dalton is an experimental code for the evaluation of molecular
    properties using (MC)SCF, DFT, CI, and CC wave functions.
    The authors accept no responsibility for the performance of
    the code or for the correctness of the results.
     
    The code (in whole or part) is provided under a licence and
    is not to be reproduced for further distribution without
    the written permission of the authors or their representatives.
     
    See the home page "http://daltonprogram.org" for further information.
     
    If results obtained with this code are published,
    the appropriate citations would be both of:
     
       K. Aidas, C. Angeli, K. L. Bak, V. Bakken, R. Bast,
       L. Boman, O. Christiansen, R. Cimiraglia, S. Coriani,
       P. Dahle, E. K. Dalskov, U. Ekstroem,
       T. Enevoldsen, J. J. Eriksen, P. Ettenhuber, B. Fernandez,
       L. Ferrighi, H. Fliegl, L. Frediani, K. Hald, A. Halkier,
       C. Haettig, H. Heiberg, T. Helgaker, A. C. Hennum,
       H. Hettema, E. Hjertenaes, S. Hoest, I.-M. Hoeyvik,
       M. F. Iozzi, B. Jansik, H. J. Aa. Jensen, D. Jonsson,
       P. Joergensen, J. Kauczor, S. Kirpekar,
       T. Kjaergaard, W. Klopper, S. Knecht, R. Kobayashi, H. Koch,
       J. Kongsted, A. Krapp, K. Kristensen, A. Ligabue,
       O. B. Lutnaes, J. I. Melo, K. V. Mikkelsen, R. H. Myhre,
       C. Neiss, C. B. Nielsen, P. Norman, J. Olsen,
       J. M. H. Olsen, A. Osted, M. J. Packer, F. Pawlowski,
       T. B. Pedersen, P. F. Provasi, S. Reine, Z. Rinkevicius,
       T. A. Ruden, K. Ruud, V. Rybkin, P. Salek, C. C. M. Samson,
       A. Sanchez de Meras, T. Saue, S. P. A. Sauer,
       B. Schimmelpfennig, K. Sneskov, A. H. Steindal,
       K. O. Sylvester-Hvid, P. R. Taylor, A. M. Teale,
       E. I. Tellgren, D. P. Tew, A. J. Thorvaldsen, L. Thoegersen,
       O. Vahtras, M. A. Watson, D. J. D. Wilson, M. Ziolkowski
       and H. Agren,
       "The Dalton quantum chemistry program system",
       WIREs Comput. Mol. Sci. 2014, 4:269–284 (doi: 10.1002/wcms.1172)
     
    and
     
       Dalton, a molecular electronic structure program,
       Release Dalton2020.0 (2020), see http://daltonprogram.org
   ----------------------------------------------------------------------------

    Authors in alphabetical order (Major contribution(s) in parenthesis):

  Kestutis Aidas,           Vilnius University,           Lithuania   (QM/MM)
  Celestino Angeli,         University of Ferrara,        Italy       (NEVPT2)
  Keld L. Bak,              UNI-C,                        Denmark     (AOSOPPA, non-adiabatic coupling, magnetic properties)
  Vebjoern Bakken,          University of Oslo,           Norway      (DALTON; geometry optimizer, symmetry detection)
  Radovan Bast,             UiT The Arctic U. of Norway,  Norway      (DALTON installation and execution frameworks)
  Pablo Baudin,             University of Valencia,       Spain       (Cholesky excitation energies)
  Linus Boman,              NTNU,                         Norway      (Cholesky decomposition and subsystems)
  Bruno N. Cabral Tenorio,  Technical Univ. of Denmark,   Denmark     (Lanczos-based CC methods)
  Ove Christiansen,         Aarhus University,            Denmark     (CC module)
  Renzo Cimiraglia,         University of Ferrara,        Italy       (NEVPT2)
  Sonia Coriani,            Technical Univ. of Denmark,   Denmark     (CC and RESPONS modules)
  Janusz Cukras,            University of Warsaw,         Poland      (MChD in RESPONS)
  Paal Dahle,               University of Oslo,           Norway      (Parallelization)
  Erik K. Dalskov,          UNI-C,                        Denmark     (SOPPA)
  Thomas Enevoldsen,        Univ. of Southern Denmark,    Denmark     (SOPPA)
  Janus J. Eriksen,         Aarhus University,            Denmark     (Polarizable embedding, TDA)
  Rasmus Faber,             Technical Univ. of Denmark,   Denmark     (Vib.avg. NMR w. SOPPA, parallel AO-SOPPA, CVS-CC and EOMCC)
  Tobias Fahleson,          KTH Stockholm,                Sweden      (Damped cubic response)
  Berta Fernandez,          U. of Santiago de Compostela, Spain       (Doublet spin, ESR in RESPONS)
  Lara Ferrighi,            Aarhus University,            Denmark     (PCM Cubic response)
  Heike Fliegl,             University of Oslo,           Norway      (CCSD(R12))
  Luca Frediani,            UiT The Arctic U. of Norway,  Norway      (PCM)
  Emmanuel Fromager,        Univ. Strasbourg,             France      (MC-srDFT)
  Bin Gao,                  UiT The Arctic U. of Norway,  Norway      (Gen1Int library)
  Andre S. P. Gomes,        CNRS/Universite de Lille,     France      (Frozen density embedding)
  Christof Haettig,         Ruhr-University Bochum,       Germany     (CC module)
  Kasper Hald,              Aarhus University,            Denmark     (CC module)
  Asger Halkier,            Aarhus University,            Denmark     (CC module)
  Frederik Beyer Hansen,    University of Copenhagen,     Denmark     (Parallel AO-SOPPA)
  Erik D. Hedegaard,        Univ. of Southern Denmark,    Denmark     (Polarizable embedding, QM/MM, and MC-srDFT)
  Hanne Heiberg,            University of Oslo,           Norway      (Geometry analysis, selected one-electron integrals)
  Trygve Helgaker,          University of Oslo,           Norway      (DALTON; ABACUS, ERI, DFT modules, London, and much more)
  Alf Christian Hennum,     University of Oslo,           Norway      (Parity violation)
  Hinne Hettema,            University of Auckland,       New Zealand (Quadratic response in RESPONS; SIRIUS supersymmetry)
  Eirik Hjertenaes,         NTNU,                         Norway      (Cholesky decomposition)
  Pi A. B. Haase,           University of Copenhagen,     Denmark     (Triplet AO-SOPPA)
  Maria Francesca Iozzi,    University of Oslo,           Norway      (RPA)
  Christoph Jacob           TU Braunschweig               Germany     (Frozen density embedding)
  Brano Jansik              Technical Univ. of Ostrava    Czech Rep.  (DFT cubic response)
  Hans Joergen Aa. Jensen,  Univ. of Southern Denmark,    Denmark     (DALTON; SIRIUS, RESPONS, ABACUS, MC-srDFT, and much more)
  Dan Jonsson,              UiT The Arctic U. of Norway,  Norway      (Cubic response in RESPONS module)
  Poul Joergensen,          Aarhus University,            Denmark     (RESPONS, ABACUS, and CC modules)
  Maciej Kaminski,          University of Warsaw,         Poland      (CPPh in RESPONS)
  Joanna Kauczor,           Linkoeping University,        Sweden      (Complex polarization propagator (CPP) module)
  Sheela Kirpekar,          Univ. of Southern Denmark,    Denmark     (Mass-velocity & Darwin integrals)
  Erik Kjellgren,           Univ. of Southern Denmark,    Denmark     (MC-srDFT)
  Wim Klopper,              KIT Karlsruhe,                Germany     (R12 code in CC, SIRIUS, and ABACUS modules)
  Stefan Knecht,            ETH Zurich,                   Switzerland (Parallel CI and MCSCF, MC-srDFT)
  Rika Kobayashi,           Australian National Univ.,    Australia   (DIIS in CC, London in MCSCF)
  Henrik Koch,              NTNU,                         Norway      (CC module, Cholesky decomposition)
  Jacob Kongsted,           Univ. of Southern Denmark,    Denmark     (Polarizable embedding, polarizable density embedding, QM/MM)
  Andrea Ligabue,           University of Modena,         Italy       (CTOCD, AOSOPPA)
  Nanna H. List             Univ. of Southern Denmark,    Denmark     (Polarizable embedding)
  Ola B. Lutnaes,           University of Oslo,           Norway      (DFT Hessian)
  Juan I. Melo,             University of Buenos Aires,   Argentina   (LRESC, Relativistic Effects on NMR Shieldings)
  Kurt V. Mikkelsen,        University of Copenhagen,     Denmark     (MC-SCRF and QM/MM)
  Rolf H. Myhre,            NTNU,                         Norway      (Subsystems and CC3)
  Christian Neiss,          Univ. Erlangen-Nuernberg,     Germany     (CCSD(R12))
  Christian B. Nielsen,     University of Copenhagen,     Denmark     (QM/MM)
  Patrick Norman,           KTH Stockholm,                Sweden      (Cubic response and complex frequency response in RESPONS)
  Jeppe Olsen,              Aarhus University,            Denmark     (SIRIUS CI/density modules)
  Jogvan Magnus H. Olsen,   Aarhus University,            Denmark     (Polarizable embedding and polarizable density embedding)
  Anders Osted,             Copenhagen University,        Denmark     (QM/MM)
  Martin J. Packer,         University of Sheffield,      UK          (SOPPA)
  Filip Pawlowski,          Kazimierz Wielki University,  Poland      (CC3)
  Morten N. Pedersen,       Univ. of Southern Denmark,    Denmark     (Polarizable embedding)
  Thomas B. Pedersen,       University of Oslo,           Norway      (Cholesky decomposition)
  Patricio F. Provasi,      University of Northeastern,   Argentina   (Analysis of coupling constants in localized orbitals)
  Peter Reinholdt,          Univ. of Southern Denmark,    Denmark     (Polarizable embedding and polarizable density embedding)
  Zilvinas Rinkevicius,     KTH Stockholm,                Sweden      (open-shell DFT, ESR)
  Elias Rudberg,            KTH Stockholm,                Sweden      (DFT grid and basis info)
  Torgeir A. Ruden,         University of Oslo,           Norway      (Numerical derivatives in ABACUS)
  Kenneth Ruud,             UiT The Arctic U. of Norway,  Norway      (DALTON; ABACUS magnetic properties and much more)
  Pawel Salek,              KTH Stockholm,                Sweden      (DALTON; DFT code)
  Claire C. M. Samson       University of Karlsruhe       Germany     (Boys localization, r12 integrals in ERI)
  Alfredo Sanchez de Meras, University of Valencia,       Spain       (CC module, Cholesky decomposition)
  Trond Saue,               Paul Sabatier University,     France      (direct Fock matrix construction)
  Stephan P. A. Sauer,      University of Copenhagen,     Denmark     (SOPPA(CCSD), SOPPA prop., AOSOPPA, vibrational g-factors)
  Bernd Schimmelpfennig,    Forschungszentrum Karlsruhe,  Germany     (AMFI module)
  Anna K. Schnack-Petersen, University of Copenhagen,     Denmark     (RPA(D) and HRPA(D) properties in AOSOPPA)
  Kristian Sneskov,         Aarhus University,            Denmark     (Polarizable embedding, QM/MM)
  Arnfinn H. Steindal,      UiT The Arctic U. of Norway,  Norway      (parallel QM/MM, polarizable embedding)
  Casper Steinmann,         Aalborg University,           Denmark     (QFIT, polarizable embedding)
  K. O. Sylvester-Hvid,     University of Copenhagen,     Denmark     (MC-SCRF)
  Peter R. Taylor,          VLSCI/Univ. of Melbourne,     Australia   (Symmetry handling ABACUS, integral transformation)
  Andrew M. Teale,          University of Nottingham,     England     (DFT-AC, DFT-D)
  David P. Tew,             University of Bristol,        England     (CCSD(R12))
  Julien Toulouse,          Sorbonne Univ.,               France      (MC-srDFT)
  Olav Vahtras,             KTH Stockholm,                Sweden      (Triplet response, spin-orbit, ESR, TDDFT, open-shell DFT)
  Lucas Visscher,           Vrije Universiteit Amsterdam, Netherlands (Frozen density embedding)
  David J. Wilson,          La Trobe University,          Australia   (DFT Hessian and DFT magnetizabilities)
  Hans Agren,               KTH Stockholm,                Sweden      (SIRIUS module, RESPONS, MC-SCRF solvation)
 --------------------------------------------------------------------------------

     Date and time (Linux)  : Thu May 15 03:54:40 2025
     Host name              : xm045                                   

 * Work memory size             :  1310720000 =  9.766 gigabytes.

 * Directories for basis set searches:
   1) /gpfs/projects/rjh/adrian/summer2025/beta_projects/raw_data/NLO/dalton/hf/n5/dipole
   2) /gpfs/projects/rjh/adrian/dalton/build/basis


Compilation information
-----------------------

 Who compiled             | ahurtado
 Host                     | milan2
 System                   | Linux-5.14.0-427.42.1.el9_4.x86_64
 CMake generator          | Unix Makefiles
 Processor                | x86_64
 64-bit integers          | OFF
 MPI                      | ON
 Fortran compiler         | /gpfs/software/openmpi/milan/gcc13.2/4.1.6/bin/mpi
                          | f90
 Fortran compiler version | GNU Fortran (GCC) 13.2.0
 C compiler               | /gpfs/software/openmpi/milan/gcc13.2/4.1.6/bin/mpi
                          | cc
 C compiler version       | gcc (GCC) 13.2.0
 C++ compiler             | /gpfs/software/openmpi/milan/gcc13.2/4.1.6/bin/mpi
                          | cxx
 C++ compiler version     | unknown
 BLAS                     | /gpfs/software/intel/oneAPI/2024_2/mkl/2024.2/lib/
                          | intel64/libmkl_gf_lp64.so;/gpfs/software/intel/one
                          | API/2024_2/mkl/2024.2/lib/intel64/libmkl_sequentia
                          | l.so;/gpfs/software/intel/oneAPI/2024_2/mkl/2024.2
                          | /lib/intel64/libmkl_core.so;/usr/lib64/libpthread.
                          | a;/usr/lib64/libm.so
 LAPACK                   | /gpfs/software/intel/oneAPI/2024_2/mkl/2024.2/lib/
                          | intel64/libmkl_lapack95_lp64.a;/gpfs/software/inte
                          | l/oneAPI/2024_2/mkl/2024.2/lib/intel64/libmkl_gf_l
                          | p64.so
 Static linking           | OFF
 Last Git revision        | 66052b3af5ea7225e31178bf9a8b031913c72190
 Git branch               | (HEAD detached at Dalton2020.0)
 Configuration time       | 2025-04-10 16:02:31.569498

 * MPI parallel run using 96 processes.


   Content of the .dal input file
 ----------------------------------

**DALTON INPUT
.RUN RESPONSE
.DIRECT
**WAVE FUNCTIONS
.HF
**PROPERTIES
**RESPONSE
*QUADRA
.DIPLEN
.FREQUENCIES
2
0.0 0.0215
**END OF DALTON INPUT


   Content of the .mol file
 ----------------------------

BASIS
d-aug-cc-pVQZ
blah
blah
Atomtype=4 Angstrom Charge=0 Nosymmetry
Charge=6 Atoms=10
C_a 5.536066998843778 3.466402999753725 0.0
C_b 4.166369001271292 3.4392500015976735 0.0
C_c 3.4276169984318443 2.20278399812645 0.0
C_d 2.058811997985908 2.096950000646235 0.0
C_e 1.365670001188536 0.8343780025891309 0.0
C_f 0.0 0.6914970018120553 0.0
C_g -0.6598629998290869 -0.5899810004107818 0.0
C_h -2.019472001042177 -0.7625100010991812 0.0
C_i -2.635186000190127 -2.070242998335108 0.0
C_j -3.974355002463877 -2.2666549995239453 0.0
Charge=7 Atoms=2
N_a 6.321381997672225 4.585279000628057 0.0
N_b -4.538794000068139 -3.610130001429271 0.0
Charge=8 Atoms=2
O_a -3.7757759994302575 -4.579172999422615 0.0
O_b -5.7747340013919555 -3.670131997735762 0.0
Charge=1 Atoms=12
H_a 6.093148999149485 2.5210970022683954 0.0
H_b 3.6069480006520194 4.384473997782438 0.0
H_c 5.909042998119462 5.508340002167312 0.0
H_d 7.3272380020916446 4.514706001608058 0.0
H_e 4.014154002428372 1.2707440023448995 0.0
H_f 1.453018002455127 3.0142559989321143 0.0
H_g 1.9828259976520177 -0.07723600157384668 0.0
H_h -0.6296780014679194 1.592591000069318 0.0
H_i -0.02111300122409742 -1.4859380003119211 0.0
H_j -2.6721639987787165 0.12098999792607903 0.0
H_k -1.992137997821215 -2.958866999124197 0.0
H_l -4.7392729980013515 -1.4879950020899213 0.0


       *******************************************************************
       *********** Output from DALTON general input processing ***********
       *******************************************************************

 --------------------------------------------------------------------------------
   Overall default print level:    0
   Print level for DALTON.STAT:    1

    Parallel calculation using MPI
    AO-direct calculation (in sections where implemented)
    HERMIT 1- and 2-electron integral sections will be executed
    "Old" integral transformation used (limited to max 255 basis functions)
    Wave function sections will be executed (SIRIUS module)
    Dynamic molecular response properties section will be executed (RESPONSE module)
 --------------------------------------------------------------------------------


   ****************************************************************************
   *************** Output of molecule and basis set information ***************
   ****************************************************************************


    The two title cards from your ".mol" input:
    ------------------------------------------------------------------------
 1: blah                                                                    
 2: blah                                                                    
    ------------------------------------------------------------------------

  Coordinates are entered in Angstrom and converted to atomic units.
          - Conversion factor : 1 bohr = 0.52917721 A

  Atomic type no.    1
  --------------------
  Nuclear charge:   6.00000
  Number of symmetry independent centers:   10
  Number of basis sets to read;    2
  Basis set file used for this atomic type with Z =   6 :
     "/gpfs/projects/rjh/adrian/dalton/build/basis/aug-cc-pVQZ"

  Atomic type no.    2
  --------------------
  Nuclear charge:   7.00000
  Number of symmetry independent centers:    2
  Number of basis sets to read;    2
  Basis set file used for this atomic type with Z =   7 :
     "/gpfs/projects/rjh/adrian/dalton/build/basis/aug-cc-pVQZ"

  Atomic type no.    3
  --------------------
  Nuclear charge:   8.00000
  Number of symmetry independent centers:    2
  Number of basis sets to read;    2
  Basis set file used for this atomic type with Z =   8 :
     "/gpfs/projects/rjh/adrian/dalton/build/basis/aug-cc-pVQZ"

  Atomic type no.    4
  --------------------
  Nuclear charge:   1.00000
  Number of symmetry independent centers:   12
  Number of basis sets to read;    2
  Basis set file used for this atomic type with Z =   1 :
     "/gpfs/projects/rjh/adrian/dalton/build/basis/aug-cc-pVQZ"


                         SYMGRP: Point group information
                         -------------------------------

@    Point group: C1 


                                 Isotopic Masses
                                 ---------------

                           C_a        12.000000
                           C_b        12.000000
                           C_c        12.000000
                           C_d        12.000000
                           C_e        12.000000
                           C_f        12.000000
                           C_g        12.000000
                           C_h        12.000000
                           C_i        12.000000
                           C_j        12.000000
                           N_a        14.003074
                           N_b        14.003074
                           O_a        15.994915
                           O_b        15.994915
                           H_a         1.007825
                           H_b         1.007825
                           H_c         1.007825
                           H_d         1.007825
                           H_e         1.007825
                           H_f         1.007825
                           H_g         1.007825
                           H_h         1.007825
                           H_i         1.007825
                           H_j         1.007825
                           H_k         1.007825
                           H_l         1.007825

                       Total mass:   192.089878 amu
                       Natural abundance:  88.282 %

 Center-of-mass coordinates (a.u.):   -0.197924   -0.164682    0.000000
 Center-of-mass coordinates (Angs):   -0.104737   -0.087146    0.000000


  Atoms and basis sets
  --------------------

  Number of atom types :    4
  Total number of atoms:   26

  Basis set used is "d-aug-cc-pVQZ" from the basis set library.

  label    atoms   charge   prim   cont     basis
  ----------------------------------------------------------------------
  C_         10    6.0000   118   105      [14s8p5d4f3g|7s6p5d4f3g]                           
  N_          2    7.0000   118   105      [14s8p5d4f3g|7s6p5d4f3g]                           
  O_          2    8.0000   118   105      [14s8p5d4f3g|7s6p5d4f3g]                           
  H_         12    1.0000    64    62      [8s5p4d3f|6s5p4d3f]                                
  ----------------------------------------------------------------------
  total:     26  102.0000  2420  2214
  ----------------------------------------------------------------------
  Spherical harmonic basis used.

  Threshold for neglecting AO integrals:  1.00D-12

  Max    interatomic separation is   15.4484 Angstrom (   29.1933 Bohr)
  between atoms   18 and   14, "H_d   " and "O_b   ".

  Min HX interatomic separation is    1.0083 Angstrom (    1.9055 Bohr)

  Min YX interatomic separation is    1.2334 Angstrom (    2.3308 Bohr)


  Bond distances (Angstrom):
  --------------------------

                  atom 1     atom 2       distance
                  ------     ------       --------
  bond distance:  C_b        C_a          1.369967
  bond distance:  C_c        C_b          1.440348
  bond distance:  C_d        C_c          1.372890
  bond distance:  C_e        C_d          1.440324
  bond distance:  C_f        C_e          1.373124
  bond distance:  C_g        C_f          1.441390
  bond distance:  C_h        C_g          1.370512
  bond distance:  C_i        C_h          1.445430
  bond distance:  C_j        C_i          1.353496
  bond distance:  N_a        C_a          1.366969
  bond distance:  N_b        C_j          1.457229
  bond distance:  O_a        N_b          1.233386
  bond distance:  O_b        N_b          1.237396
  bond distance:  H_a        C_a          1.097244
  bond distance:  H_b        C_b          1.098363
  bond distance:  H_c        N_a          1.010972
  bond distance:  H_d        N_a          1.008329
  bond distance:  H_e        C_c          1.101238
  bond distance:  H_f        C_d          1.099289
  bond distance:  H_g        C_e          1.100873
  bond distance:  H_h        C_f          1.099302
  bond distance:  H_i        C_g          1.100337
  bond distance:  H_j        C_h          1.098444
  bond distance:  H_k        C_i          1.096888
  bond distance:  H_l        C_j          1.091518


  Bond angles (degrees):
  ----------------------

                  atom 1     atom 2     atom 3         angle
                  ------     ------     ------         -----
  bond angle:     C_b        C_a        N_a          126.200
  bond angle:     C_b        C_a        H_a          119.376
  bond angle:     N_a        C_a        H_a          114.424
  bond angle:     C_a        C_b        C_c          121.993
  bond angle:     C_a        C_b        H_b          119.483
  bond angle:     C_c        C_b        H_b          118.524
  bond angle:     C_b        C_c        C_d          125.278
  bond angle:     C_b        C_c        H_e          116.961
  bond angle:     C_d        C_c        H_e          117.761
  bond angle:     C_c        C_d        C_e          123.188
  bond angle:     C_c        C_d        H_f          119.020
  bond angle:     C_e        C_d        H_f          117.793
  bond angle:     C_d        C_e        C_f          124.739
  bond angle:     C_d        C_e        H_g          117.136
  bond angle:     C_f        C_e        H_g          118.125
  bond angle:     C_e        C_f        C_g          123.218
  bond angle:     C_e        C_f        H_h          118.973
  bond angle:     C_g        C_f        H_h          117.809
  bond angle:     C_f        C_g        C_h          124.477
  bond angle:     C_f        C_g        H_i          117.269
  bond angle:     C_h        C_g        H_i          118.254
  bond angle:     C_g        C_h        C_i          122.444
  bond angle:     C_g        C_h        H_j          119.223
  bond angle:     C_i        C_h        H_j          118.332
  bond angle:     C_h        C_i        C_j          123.556
  bond angle:     C_h        C_i        H_k          118.897
  bond angle:     C_j        C_i        H_k          117.547
  bond angle:     C_i        C_j        N_b          121.133
  bond angle:     C_i        C_j        H_l          126.146
  bond angle:     N_b        C_j        H_l          112.721
  bond angle:     C_a        N_a        H_c          120.865
  bond angle:     C_a        N_a        H_d          121.051
  bond angle:     H_c        N_a        H_d          118.084
  bond angle:     C_j        N_b        O_a          118.994
  bond angle:     C_j        N_b        O_b          115.568
  bond angle:     O_a        N_b        O_b          125.437




 Principal moments of inertia (u*A**2) and principal axes
 --------------------------------------------------------

   IA      79.412402          0.801134    0.598486    0.000000
   IB    4506.972239         -0.598486    0.801134    0.000000
   IC    4586.384642          0.000000    0.000000    1.000000


 Rotational constants
 --------------------

@    The molecule is planar.

               A                   B                   C

           6363.9808            112.1327            110.1912 MHz
            0.212280            0.003740            0.003676 cm-1


@  Nuclear repulsion energy :  704.495638200713 Hartree


                     .---------------------------------------.
                     | Starting in Integral Section (HERMIT) |
                     `---------------------------------------'



 ***************************************************************************************
 ****************** Output from **INTEGRALS input processing (HERMIT) ******************
 ***************************************************************************************


 - Using defaults, no **INTEGRALS input found

 Default print level:        1

 Calculation of one-electron Hamiltonian integrals.

 Center of mass  (bohr):     -0.197923758795     -0.164681770665      0.000000000000
 Operator center (bohr):      0.000000000000      0.000000000000      0.000000000000
 Gauge origin    (bohr):      0.000000000000      0.000000000000      0.000000000000
 Dipole origin   (bohr):      0.000000000000      0.000000000000      0.000000000000


     ************************************************************************
     ************************** Output from HERINT **************************
     ************************************************************************



                      Nuclear contribution to dipole moments
                      --------------------------------------

                 au               Debye          C m (/(10**-30)

      x     -0.00000010        -0.00000025        -0.00000085
      y      0.00000576         0.00001464         0.00004884
      z      0.00000000         0.00000000         0.00000000


  Time used in ONEDRV     is       7.18 seconds
  Time used in HUCKEL     is       1.78 seconds
  Time used in OVERLAP    is       1.03 seconds
  Time used in POPOVLP    is       2.01 seconds
  Time used in R2         is       1.29 seconds
  Time used in R4         is       1.58 seconds
  Time used in DIPLEN     is       2.09 seconds
  Time used in QUADRUP    is       4.24 seconds
  Time used in KINENE     is       1.61 seconds
  Time used in GABGEN     is      52.25 seconds
  Total CPU  time used in HERMIT:  1 minute  15 seconds
  Total wall time used in HERMIT:  1 minute  16 seconds


                        .----------------------------------.
                        | End of Integral Section (HERMIT) |
                        `----------------------------------'



                   .--------------------------------------------.
                   | Starting in Wave Function Section (SIRIUS) |
                   `--------------------------------------------'



@ Primary orbitals are deleted during canonical orthonormalization
@   because of detected numerical linear dependence or too large coefficients.
@ Eigenvalue threshold for num. lin. dep. =  1.00D-06

@ 117 MO components are deleted in symmetry    1
 Overlap eigenvalues of the deleted orbitals:
  9.87D-07  9.31D-07  9.03D-07  8.49D-07  8.37D-07
  7.82D-07  7.43D-07  7.30D-07  7.03D-07  6.95D-07
  6.70D-07  6.46D-07  6.18D-07  5.54D-07  5.49D-07
  5.33D-07  5.09D-07  4.88D-07  4.80D-07  4.61D-07
  4.46D-07  4.36D-07  4.19D-07  3.99D-07  3.74D-07
  3.69D-07  3.53D-07  3.31D-07  3.23D-07  3.10D-07
  3.02D-07  2.98D-07  2.79D-07  2.69D-07  2.66D-07
  2.59D-07  2.47D-07  2.36D-07  2.26D-07  2.15D-07
  1.97D-07  1.89D-07  1.75D-07  1.71D-07  1.63D-07
  1.46D-07  1.41D-07  1.37D-07  1.22D-07  1.20D-07
  1.11D-07  1.11D-07  1.01D-07  9.15D-08  8.80D-08
  8.70D-08  7.98D-08  7.65D-08  7.10D-08  6.69D-08
  5.86D-08  5.57D-08  5.53D-08  5.23D-08  4.99D-08
  4.47D-08  4.36D-08  4.13D-08  3.77D-08  3.64D-08
  3.59D-08  3.49D-08  3.23D-08  2.94D-08  2.70D-08
  2.61D-08  2.23D-08  2.22D-08  2.00D-08  1.93D-08
  1.77D-08  1.72D-08  1.53D-08  1.46D-08  1.37D-08
  1.32D-08  1.25D-08  1.22D-08  1.07D-08  1.04D-08
  8.92D-09  8.73D-09  8.26D-09  7.45D-09  7.38D-09
  6.99D-09  6.32D-09  6.02D-09  5.79D-09  4.98D-09
  4.46D-09  4.29D-09  3.88D-09  3.54D-09  3.36D-09
  2.99D-09  2.84D-09  2.54D-09  2.18D-09  2.05D-09
  1.89D-09  1.55D-09  1.43D-09  9.16D-10  8.48D-10
  7.07D-10  1.40D-10

 Max MO coeff. of last deleted MO & limit:  1.61D+02  1.00D+03

WARNING: Orbitals have been deleted because of numerical
   linear dependence although not requested in input.

 *** Output from Huckel module :

     Using EWMO model:          T
     Using EHT  model:          F
     Number of Huckel orbitals each symmetry:   82

 EWMO - Energy Weighted Maximum Overlap - is a Huckel type method,
        which normally is better than Extended Huckel Theory.
 Reference: Linderberg and Ohrn, Propagators in Quantum Chemistry (Wiley, 1973)

 Huckel EWMO eigenvalues for symmetry :  1
          -20.684752     -20.683486     -15.677076     -15.674980     -11.359150
          -11.359082     -11.357769     -11.355196     -11.352150     -11.348123
          -11.346555     -11.345641     -11.345362     -11.345302      -1.964108
           -1.790031      -1.759034      -1.671445      -1.525369      -1.443608
           -1.340444      -1.181714      -1.160221      -1.085520      -0.995412
           -0.953581      -0.870160      -0.851985      -0.834962      -0.764582
           -0.761079      -0.727823      -0.693657      -0.681100      -0.645373
           -0.609220      -0.604855      -0.585238      -0.567776      -0.544141
           -0.521521      -0.520574      -0.505517      -0.494077      -0.484879
           -0.480611      -0.479444      -0.440146      -0.431877      -0.379599
           -0.376175      -0.334309      -0.281433      -0.244876      -0.229171
           -0.219702      -0.204256      -0.201181      -0.196150      -0.190466
           -0.166430      -0.142758      -0.138473      -0.131883      -0.129974
           -0.129105      -0.128790      -0.128093      -0.126029      -0.125571
           -0.124564      -0.123333      -0.109572      -0.106318      -0.100422
           -0.095501      -0.091917      -0.088850      -0.086677      -0.085099
           -0.082161      -0.079656

 **********************************************************************
 *SIRIUS* a direct, restricted step, second order MCSCF program       *
 **********************************************************************

 
     Date and time (Linux)  : Thu May 15 04:05:38 2025
     Host name              : xm045                                   

 Title lines from ".mol" input file:
     blah                                                                    
     blah                                                                    

 Print level on unit LUPRI =   2 is   0
 Print level on unit LUW4  =   2 is   5

@    Restricted, closed shell Hartree-Fock calculation.

@    Time-dependent Hartree-Fock calculation (random phase approximation).
 Fock matrices are calculated directly and in parallel without use of integrals on disk.

 Initial molecular orbitals are obtained according to
 ".MOSTART EWMO  " input option

     Wave function specification
     ============================
@    Wave function type        --- HF ---
@    Number of closed shell electrons         102
@    Number of electrons in active shells       0
@    Total charge of the molecule               0

@    Spin multiplicity and 2 M_S                1         0
@    Total number of symmetries                 1 (point group: C1 )
@    Reference state symmetry                   1 (irrep name : A  )

     Orbital specifications
     ======================
@    Abelian symmetry species          All |    1
@                                          |  A  
                                       --- |  ---
@    Occupied SCF orbitals              51 |   51
@    Secondary orbitals               2046 | 2046
@    Total number of orbitals         2097 | 2097
@    Number of basis functions        2214 | 2214

     Optimization information
     ========================
@    Number of configurations                 1
@    Number of orbital rotations         104346
     ------------------------------------------
@    Total number of variables           104347

     Maximum number of Fock   iterations      0
     Maximum number of DIIS   iterations     60
     Maximum number of QC-SCF iterations     60
     Threshold for SCF convergence     1.00D-05

    INFORMATION: Switched to "new" integral transformation (from 1988 ;-) )
    because more than 255 basis functions.


 ***********************************************
 ***** DIIS acceleration of SCF iterations *****
 ***********************************************

 C1-DIIS algorithm; max error vectors =    8

 Iter      Total energy        Error norm    Delta(E)  DIIS dim.
 -----------------------------------------------------------------------------
   1  Screening settings (-IFTHRS, JTDIIS, DIFDEN, times)  -10    1    T  1.32D+03  1.33D+03
@  1    -641.729048042        6.68399D+00   -6.42D+02    1
      Virial theorem: -V/T =      2.007444
@    MULPOP   C_a     1.26; C_b    -0.13; C_c     0.08; C_d    -0.19; C_e     0.24; C_f    -0.07; C_g     0.22; C_h    -0.06; C_i     0.10; C_j     0.78; 
@             N_a    -1.28; N_b     4.56; O_a    -3.06; O_b    -3.42; H_a     0.16; H_b     0.12; H_c     0.23; H_d     0.05; H_e    -0.07; H_f     0.08; 
@             H_g     0.03; H_h     0.07; H_i     0.08; H_j     0.04; H_k     0.17; H_l     0.02; 
   1  Level shift: doubly occupied orbital energies shifted by -2.00D-01
 -----------------------------------------------------------------------------
   2  Screening settings (-IFTHRS, JTDIIS, DIFDEN, times)  -10    2    T  1.34D+03  1.35D+03
@  2    -643.921008121        2.89727D+00   -2.19D+00    2
      Virial theorem: -V/T =      2.001371
@    MULPOP   C_a     0.44; C_b    -0.22; C_c    -0.22; C_d    -0.14; C_e    -0.05; C_f    -0.12; C_g    -0.05; C_h    -0.35; C_i    -0.01; C_j    -0.21; 
@             N_a    -0.87; N_b     1.61; O_a    -1.01; O_b    -1.05; H_a     0.24; H_b     0.15; H_c     0.27; H_d     0.18; H_e     0.12; H_f     0.17; 
@             H_g     0.19; H_h     0.21; H_i     0.21; H_j     0.13; H_k     0.24; H_l     0.15; 
   2  Level shift: doubly occupied orbital energies shifted by -1.00D-01
 -----------------------------------------------------------------------------
   3  Screening settings (-IFTHRS, JTDIIS, DIFDEN, times)  -10    3    T  1.33D+03  1.34D+03
@  3    -644.309425579        8.19308D-01   -3.88D-01    3
      Virial theorem: -V/T =      2.001139
@    MULPOP   C_a     0.45; C_b    -0.09; C_c    -0.17; C_d    -0.02; C_e    -0.01; C_f    -0.06; C_g     0.11; C_h    -0.26; C_i     0.20; C_j    -0.07; 
@             N_a    -0.69; N_b     2.19; O_a    -1.24; O_b    -1.50; H_a     0.13; H_b     0.04; H_c     0.21; H_d     0.10; H_e     0.01; H_f     0.09; 
@             H_g     0.13; H_h     0.14; H_i     0.10; H_j     0.02; H_k     0.13; H_l     0.04; 
   3  Level shift: doubly occupied orbital energies shifted by -5.00D-02
 -----------------------------------------------------------------------------
   4  Screening settings (-IFTHRS, JTDIIS, DIFDEN, times)  -10    4    T  1.33D+03  1.33D+03
@  4    -644.351063378        2.42366D-01   -4.16D-02    4
      Virial theorem: -V/T =      2.003048
@    MULPOP   C_a     0.43; C_b    -0.05; C_c    -0.12; C_d     0.05; C_e     0.04; C_f    -0.03; C_g     0.20; C_h    -0.25; C_i     0.27; C_j    -0.14; 
@             N_a    -0.60; N_b     2.03; O_a    -1.19; O_b    -1.39; H_a     0.09; H_b    -0.00; H_c     0.19; H_d     0.06; H_e    -0.03; H_f     0.06; 
@             H_g     0.09; H_h     0.11; H_i     0.07; H_j    -0.02; H_k     0.11; H_l     0.04; 
   4  Level shift: doubly occupied orbital energies shifted by -2.50D-02
 -----------------------------------------------------------------------------
   5  Screening settings (-IFTHRS, JTDIIS, DIFDEN, times)  -14    5    F  1.39D+03  1.40D+03
@  5    -644.358760038        9.71739D-02   -7.70D-03    5
      Virial theorem: -V/T =      2.002410
@    MULPOP   C_a     0.40; C_b    -0.06; C_c    -0.13; C_d     0.03; C_e     0.02; C_f    -0.05; C_g     0.18; C_h    -0.26; C_i     0.25; C_j    -0.12; 
@             N_a    -0.60; N_b     2.07; O_a    -1.18; O_b    -1.42; H_a     0.10; H_b     0.01; H_c     0.19; H_d     0.06; H_e    -0.02; H_f     0.07; 
@             H_g     0.10; H_h     0.12; H_i     0.09; H_j    -0.01; H_k     0.12; H_l     0.04; 
   5  Level shift: doubly occupied orbital energies shifted by -1.25D-02
 -----------------------------------------------------------------------------
   6  Screening settings (-IFTHRS, JTDIIS, DIFDEN, times)  -14    6    T  1.37D+03  1.38D+03
@  6    -644.360690608        4.62621D-02   -1.93D-03    6
      Virial theorem: -V/T =      2.002269
@    MULPOP   C_a     0.40; C_b    -0.05; C_c    -0.14; C_d     0.04; C_e     0.02; C_f    -0.05; C_g     0.19; C_h    -0.26; C_i     0.26; C_j    -0.14; 
@             N_a    -0.60; N_b     2.06; O_a    -1.18; O_b    -1.40; H_a     0.10; H_b     0.01; H_c     0.19; H_d     0.06; H_e    -0.02; H_f     0.07; 
@             H_g     0.10; H_h     0.12; H_i     0.09; H_j    -0.01; H_k     0.12; H_l     0.04; 
 -----------------------------------------------------------------------------
   7  Screening settings (-IFTHRS, JTDIIS, DIFDEN, times)  -14    7    T  1.37D+03  1.38D+03
@  7    -644.361205464        2.22599D-02   -5.15D-04    7
      Virial theorem: -V/T =      2.002317
@    MULPOP   C_a     0.39; C_b    -0.05; C_c    -0.14; C_d     0.04; C_e     0.02; C_f    -0.05; C_g     0.19; C_h    -0.27; C_i     0.26; C_j    -0.14; 
@             N_a    -0.60; N_b     2.06; O_a    -1.18; O_b    -1.41; H_a     0.10; H_b     0.01; H_c     0.19; H_d     0.06; H_e    -0.02; H_f     0.07; 
@             H_g     0.10; H_h     0.12; H_i     0.09; H_j    -0.01; H_k     0.12; H_l     0.04; 
 -----------------------------------------------------------------------------
   8  Screening settings (-IFTHRS, JTDIIS, DIFDEN, times)  -14    8    T  1.37D+03  1.37D+03
@  8    -644.361317120        9.05939D-03   -1.12D-04    8
      Virial theorem: -V/T =      2.002311
@    MULPOP   C_a     0.39; C_b    -0.05; C_c    -0.14; C_d     0.04; C_e     0.02; C_f    -0.05; C_g     0.19; C_h    -0.26; C_i     0.26; C_j    -0.14; 
@             N_a    -0.60; N_b     2.07; O_a    -1.18; O_b    -1.41; H_a     0.10; H_b     0.01; H_c     0.19; H_d     0.06; H_e    -0.02; H_f     0.07; 
@             H_g     0.10; H_h     0.12; H_i     0.09; H_j    -0.01; H_k     0.12; H_l     0.04; 
 -----------------------------------------------------------------------------
   9  Screening settings (-IFTHRS, JTDIIS, DIFDEN, times)  -14    9    T  1.35D+03  1.37D+03
@  9    -644.361333288        3.23596D-03   -1.62D-05    8
      Virial theorem: -V/T =      2.002300
@    MULPOP   C_a     0.39; C_b    -0.05; C_c    -0.14; C_d     0.04; C_e     0.02; C_f    -0.05; C_g     0.19; C_h    -0.26; C_i     0.26; C_j    -0.14; 
@             N_a    -0.60; N_b     2.07; O_a    -1.18; O_b    -1.41; H_a     0.10; H_b     0.01; H_c     0.19; H_d     0.06; H_e    -0.02; H_f     0.07; 
@             H_g     0.10; H_h     0.12; H_i     0.09; H_j    -0.01; H_k     0.12; H_l     0.04; 
 -----------------------------------------------------------------------------
  10  Screening settings (-IFTHRS, JTDIIS, DIFDEN, times)  -14   10    T  1.36D+03  1.37D+03
@ 10    -644.361336311        1.63919D-03   -3.02D-06    8
      Virial theorem: -V/T =      2.002301
@    MULPOP   C_a     0.39; C_b    -0.05; C_c    -0.14; C_d     0.04; C_e     0.02; C_f    -0.05; C_g     0.19; C_h    -0.26; C_i     0.26; C_j    -0.14; 
@             N_a    -0.60; N_b     2.07; O_a    -1.18; O_b    -1.41; H_a     0.10; H_b     0.01; H_c     0.18; H_d     0.06; H_e    -0.02; H_f     0.07; 
@             H_g     0.10; H_h     0.12; H_i     0.09; H_j    -0.01; H_k     0.12; H_l     0.04; 
 -----------------------------------------------------------------------------
  11  Screening settings (-IFTHRS, JTDIIS, DIFDEN, times)  -14   11    T  1.35D+03  1.36D+03
@ 11    -644.361337220        9.63815D-04   -9.10D-07    8
      Virial theorem: -V/T =      2.002302
@    MULPOP   C_a     0.39; C_b    -0.05; C_c    -0.14; C_d     0.04; C_e     0.02; C_f    -0.05; C_g     0.19; C_h    -0.26; C_i     0.26; C_j    -0.14; 
@             N_a    -0.60; N_b     2.07; O_a    -1.18; O_b    -1.41; H_a     0.10; H_b     0.01; H_c     0.18; H_d     0.06; H_e    -0.02; H_f     0.07; 
@             H_g     0.10; H_h     0.12; H_i     0.09; H_j    -0.01; H_k     0.12; H_l     0.04; 
 -----------------------------------------------------------------------------
  12  Screening settings (-IFTHRS, JTDIIS, DIFDEN, times)  -14   12    T  1.35D+03  1.36D+03
@ 12    -644.361337527        3.03295D-04   -3.07D-07    8
      Virial theorem: -V/T =      2.002301
@    MULPOP   C_a     0.39; C_b    -0.05; C_c    -0.14; C_d     0.04; C_e     0.02; C_f    -0.05; C_g     0.19; C_h    -0.26; C_i     0.26; C_j    -0.14; 
@             N_a    -0.60; N_b     2.07; O_a    -1.18; O_b    -1.41; H_a     0.10; H_b     0.01; H_c     0.18; H_d     0.06; H_e    -0.02; H_f     0.07; 
@             H_g     0.10; H_h     0.12; H_i     0.09; H_j    -0.01; H_k     0.12; H_l     0.04; 
 -----------------------------------------------------------------------------
  13  Screening settings (-IFTHRS, JTDIIS, DIFDEN, times)  -14   13    T  1.34D+03  1.35D+03
@ 13    -644.361337560        1.30150D-04   -3.27D-08    8
      Virial theorem: -V/T =      2.002301
@    MULPOP   C_a     0.39; C_b    -0.05; C_c    -0.14; C_d     0.04; C_e     0.02; C_f    -0.05; C_g     0.19; C_h    -0.26; C_i     0.26; C_j    -0.14; 
@             N_a    -0.60; N_b     2.07; O_a    -1.18; O_b    -1.41; H_a     0.10; H_b     0.01; H_c     0.18; H_d     0.06; H_e    -0.02; H_f     0.07; 
@             H_g     0.10; H_h     0.12; H_i     0.09; H_j    -0.01; H_k     0.12; H_l     0.04; 
 -----------------------------------------------------------------------------
  14  Screening settings (-IFTHRS, JTDIIS, DIFDEN, times)  -14   14    T  1.33D+03  1.34D+03
@ 14    -644.361337562        4.10074D-05   -2.60D-09    8
      Virial theorem: -V/T =      2.002301
@    MULPOP   C_a     0.39; C_b    -0.05; C_c    -0.14; C_d     0.04; C_e     0.02; C_f    -0.05; C_g     0.19; C_h    -0.26; C_i     0.26; C_j    -0.14; 
@             N_a    -0.60; N_b     2.07; O_a    -1.18; O_b    -1.41; H_a     0.10; H_b     0.01; H_c     0.18; H_d     0.06; H_e    -0.02; H_f     0.07; 
@             H_g     0.10; H_h     0.12; H_i     0.09; H_j    -0.01; H_k     0.12; H_l     0.04; 
 -----------------------------------------------------------------------------
  15  Screening settings (-IFTHRS, JTDIIS, DIFDEN, times)  -14   15    T  1.33D+03  1.33D+03
@ 15    -644.361337563        1.52672D-05   -3.58D-10    8
      Virial theorem: -V/T =      2.002301
@    MULPOP   C_a     0.39; C_b    -0.05; C_c    -0.14; C_d     0.04; C_e     0.02; C_f    -0.05; C_g     0.19; C_h    -0.26; C_i     0.26; C_j    -0.14; 
@             N_a    -0.60; N_b     2.07; O_a    -1.18; O_b    -1.41; H_a     0.10; H_b     0.01; H_c     0.18; H_d     0.06; H_e    -0.02; H_f     0.07; 
@             H_g     0.10; H_h     0.12; H_i     0.09; H_j    -0.01; H_k     0.12; H_l     0.04; 
 -----------------------------------------------------------------------------
  16  Screening settings (-IFTHRS, JTDIIS, DIFDEN, times)  -14   16    T  1.33D+03  1.33D+03
@ 16    -644.361337563        7.01628D-06   -3.84D-11    8

@ *** DIIS converged in  16 iterations !
@     Converged SCF energy, gradient:   -644.361337562894    7.02D-06
    - total time used in SIRFCK :              0.00 seconds


 *** SCF orbital energy analysis ***

 Only the 20 lowest virtual orbital energies printed in each symmetry.

 Number of electrons :  102
 Orbital occupations :   51

 Sym       Hartree-Fock orbital energies

1 A     -20.57945416   -20.57666571   -15.83101678   -15.60063101   -11.31376346
        -11.28306241   -11.28026777   -11.27274020   -11.26653420   -11.26574923
        -11.24986774   -11.24324405   -11.23782617   -11.23505774    -1.57149068
         -1.36927024    -1.24746121    -1.13647375    -1.11544491    -1.08542970
         -1.04281567    -0.98982397    -0.93532306    -0.86265903    -0.81394058
         -0.78760093    -0.77600480    -0.76953526    -0.73469196    -0.72426811
         -0.70556814    -0.69056200    -0.68915047    -0.65894448    -0.63650655
         -0.61128664    -0.59673350    -0.56506317    -0.55648519    -0.54126816
         -0.53500927    -0.52470939    -0.51225497    -0.48975756    -0.47569983
         -0.47293500    -0.45496706    -0.43447207    -0.40207871    -0.33392148
         -0.25830116    -0.00160438     0.00371252     0.00705627     0.01017708
          0.01076892     0.01317485     0.01638861     0.01702243     0.01912729
          0.01971137     0.02084417     0.02200918     0.02289003     0.02392652
          0.02400130     0.02569967     0.02797666     0.02987165     0.03056217
          0.03080371

    E(LUMO) :    -0.00160438 au (symmetry 1)
  - E(HOMO) :    -0.25830116 au (symmetry 1)
  ------------------------------------------
    gap     :     0.25669678 au

 --- Writing SIRIFC interface file

 CPU and wall time for SCF :   22722.171   22863.078


                       .-----------------------------------.
                       | --- Final results from SIRIUS --- |
                       `-----------------------------------'


@    Spin multiplicity:           1
@    Spatial symmetry:            1 ( irrep  A   in C1  )
@    Total charge of molecule:    0

@    Final HF energy:            -644.361337562894                 
@    Nuclear repulsion:           704.495638200713
@    Electronic energy:         -1348.856975763607

@    Final gradient norm:           0.000007016280

 
     Date and time (Linux)  : Thu May 15 10:27:04 2025
     Host name              : xm045                                   

File label for MO orbitals:  15May25   FOCKDIIS

 (Only coefficients > 0.0100 are printed.)

 Molecular orbitals for symmetry species 1  (A  )
 ------------------------------------------------

    Orbital        42       43       44       45       46       47       48
   2 C_a :1s    -0.0330  -0.0060  -0.0000   0.0034   0.0003   0.0000  -0.0000
   4 C_a :1s    -0.0269  -0.0229  -0.0000   0.0060   0.0010   0.0000  -0.0000
   5 C_a :1s    -0.0045   0.0055   0.0000  -0.0107   0.0136  -0.0000  -0.0000
   7 C_a :1s     0.0145  -0.0218  -0.0000  -0.0274   0.0166  -0.0000  -0.0000
   8 C_a :2px    0.1043   0.0160  -0.0000  -0.0059  -0.0006   0.0000   0.0000
   9 C_a :2py   -0.0713  -0.0325   0.0000  -0.0011  -0.0001  -0.0000   0.0000
  10 C_a :2pz    0.0000   0.0000   0.0437  -0.0000  -0.0000  -0.0119   0.0011
  14 C_a :2px    0.0195   0.0241  -0.0000   0.0013   0.0043  -0.0000   0.0000
  17 C_a :2px   -0.0002  -0.0080  -0.0000  -0.0148   0.0063   0.0000  -0.0000
  18 C_a :2py   -0.0012   0.0160  -0.0000  -0.0096  -0.0146   0.0000  -0.0000
  19 C_a :2pz   -0.0000   0.0000   0.0563  -0.0000  -0.0000   0.0438  -0.0102
  20 C_a :2px   -0.0101  -0.0117   0.0000   0.0008  -0.0189   0.0000   0.0000
  21 C_a :2py   -0.0002  -0.0017   0.0000  -0.0610   0.0114  -0.0000  -0.0000
  22 C_a :2pz    0.0000  -0.0000  -0.0543  -0.0000   0.0000   0.0199   0.0042
  23 C_a :2px    0.0033   0.0127  -0.0000  -0.0130   0.0051   0.0000  -0.0000
  24 C_a :2py   -0.0073   0.0138  -0.0000  -0.0064   0.0091   0.0000  -0.0000
  36 C_a :3d2-   0.0208   0.0167  -0.0000   0.0023   0.0055  -0.0000   0.0000
  41 C_a :3d2-   0.0180   0.0072  -0.0000   0.0164   0.0253   0.0000  -0.0000
  42 C_a :3d1-   0.0000  -0.0000  -0.0447   0.0000   0.0000   0.0152  -0.0149
  43 C_a :3d0   -0.0126   0.0088   0.0000   0.0034  -0.0045  -0.0000   0.0000
  44 C_a :3d1+   0.0000  -0.0000  -0.1162   0.0000   0.0000   0.0238   0.0166
  45 C_a :3d2+   0.0160   0.0031  -0.0000   0.0009   0.0319   0.0000  -0.0000
  46 C_a :3d2-   0.0033   0.0005  -0.0000  -0.0008  -0.0129   0.0000  -0.0000
  47 C_a :3d1-   0.0000  -0.0000  -0.0289  -0.0000   0.0000   0.0101  -0.0033
  49 C_a :3d1+  -0.0000   0.0000   0.0127   0.0000  -0.0000  -0.0132  -0.0002
  50 C_a :3d2+  -0.0009   0.0002  -0.0000  -0.0144   0.0210   0.0000  -0.0000
  65 C_a :4f3-  -0.0122  -0.0176   0.0000  -0.0036  -0.0019   0.0000  -0.0000
  72 C_a :4f3-  -0.0072  -0.0175   0.0000   0.0134   0.0396   0.0000  -0.0000
  73 C_a :4f2-   0.0000  -0.0000  -0.0167   0.0000   0.0000  -0.0032   0.0068
  75 C_a :4f0   -0.0000   0.0000   0.0216  -0.0000  -0.0000  -0.0004  -0.0020
  77 C_a :4f2+  -0.0000   0.0000   0.0464  -0.0000  -0.0000  -0.0212  -0.0076
 107 C_b :1s    -0.0362  -0.0594   0.0000  -0.0053  -0.0004  -0.0000  -0.0000
 109 C_b :1s    -0.0541  -0.0383  -0.0000  -0.0055  -0.0132  -0.0000   0.0000
 110 C_b :1s    -0.0071   0.0123   0.0000  -0.0046   0.0091  -0.0000  -0.0000
 111 C_b :1s     0.0026   0.0058   0.0000  -0.0021   0.0280  -0.0000  -0.0000
 112 C_b :1s     0.0269  -0.0208  -0.0000  -0.0039  -0.0083  -0.0000   0.0000
 113 C_b :2px   -0.0828   0.0181   0.0000   0.0085   0.0008  -0.0000  -0.0000
 114 C_b :2py    0.2490   0.2131   0.0000   0.0105   0.0006  -0.0000   0.0000
 115 C_b :2pz    0.0000  -0.0000  -0.0412   0.0000   0.0000   0.1682   0.0105
 119 C_b :2px    0.0118   0.0148  -0.0000   0.0008   0.0038  -0.0000  -0.0000
 120 C_b :2py    0.0152   0.0205   0.0000   0.0015   0.0027  -0.0000   0.0000
 121 C_b :2pz    0.0000  -0.0000  -0.0016   0.0000   0.0000   0.0102   0.0018
 123 C_b :2py   -0.0021  -0.0312   0.0000   0.0127  -0.0185  -0.0000  -0.0000
 124 C_b :2pz    0.0000  -0.0000  -0.0579   0.0000   0.0000   0.0698  -0.0022
 125 C_b :2px   -0.0065  -0.0131   0.0000  -0.0073  -0.0072  -0.0000  -0.0000
 126 C_b :2py   -0.0101  -0.0025  -0.0000   0.0012  -0.0113   0.0000   0.0000
 127 C_b :2pz    0.0000  -0.0000   0.0577   0.0000  -0.0000   0.0024   0.0052
 128 C_b :2px    0.0031  -0.0122   0.0000   0.0167  -0.0048  -0.0000  -0.0000
 129 C_b :2py    0.0040  -0.0049   0.0000   0.0190  -0.0055   0.0000   0.0000
 136 C_b :3d2-  -0.0115  -0.0090  -0.0000  -0.0002  -0.0001   0.0000  -0.0000
 141 C_b :3d2-   0.0364   0.0390  -0.0000   0.0011   0.0038  -0.0000   0.0000
 142 C_b :3d1-  -0.0000   0.0000   0.0012   0.0000   0.0000  -0.0145  -0.0005
 143 C_b :3d0   -0.0120  -0.0054  -0.0000  -0.0022  -0.0022   0.0000   0.0000
 145 C_b :3d2+   0.0386   0.0308   0.0000   0.0014   0.0079  -0.0000   0.0000
 146 C_b :3d2-   0.0195   0.0026  -0.0000   0.0047  -0.0046  -0.0000  -0.0000
 147 C_b :3d1-  -0.0000   0.0000  -0.0189   0.0000  -0.0000  -0.0158   0.0175
 148 C_b :3d0   -0.0059  -0.0166   0.0000  -0.0011   0.0112   0.0000   0.0000
 149 C_b :3d1+   0.0000  -0.0000  -0.1272   0.0000   0.0000   0.0086   0.0159
 150 C_b :3d2+  -0.0020   0.0190  -0.0000   0.0097  -0.0159  -0.0000   0.0000
 152 C_b :3d1-  -0.0000   0.0000   0.0412   0.0000   0.0000  -0.0348   0.0133
 153 C_b :3d0   -0.0042  -0.0055  -0.0000   0.0040   0.0149  -0.0000   0.0000
 154 C_b :3d1+   0.0000  -0.0000   0.0325   0.0000   0.0000   0.0248  -0.0051
 170 C_b :4f3-  -0.0065  -0.0161  -0.0000  -0.0029  -0.0061   0.0000  -0.0000
 176 C_b :4f3+  -0.0004   0.0145   0.0000  -0.0036  -0.0061  -0.0000   0.0000
 177 C_b :4f3-  -0.0023  -0.0195  -0.0000  -0.0259  -0.0200  -0.0000  -0.0000
 178 C_b :4f2-  -0.0000   0.0000   0.0624  -0.0000  -0.0000  -0.0324   0.0061
 180 C_b :4f0    0.0000  -0.0000  -0.0207   0.0000   0.0000   0.0193   0.0011
 181 C_b :4f1+   0.0100   0.0005   0.0000   0.0014   0.0020   0.0000   0.0000
 183 C_b :4f3+   0.0008  -0.0098   0.0000  -0.0123  -0.0417  -0.0000  -0.0000
 212 C_c :1s    -0.0489  -0.0507  -0.0000   0.0049   0.0009   0.0000   0.0000
 214 C_c :1s    -0.0645  -0.0901  -0.0000   0.0081  -0.0096   0.0000   0.0000
 215 C_c :1s    -0.0041  -0.0017   0.0000  -0.0154   0.0047  -0.0000  -0.0000
 216 C_c :1s     0.0025   0.0145   0.0000  -0.0281   0.0077  -0.0000  -0.0000
 217 C_c :1s     0.0280   0.0184   0.0000  -0.0149  -0.0056   0.0000  -0.0000
 218 C_c :2px    0.1423   0.1042   0.0000  -0.0140  -0.0022  -0.0000   0.0000
 219 C_c :2py   -0.2682  -0.2542  -0.0000  -0.0104  -0.0003   0.0000  -0.0000
 220 C_c :2pz    0.0000  -0.0000  -0.1488   0.0000   0.0000   0.3228   0.0156
 224 C_c :2px   -0.0041   0.0159   0.0000   0.0016   0.0135  -0.0000  -0.0000
 225 C_c :2py   -0.0159  -0.0198  -0.0000  -0.0003   0.0060   0.0000  -0.0000
 226 C_c :2pz    0.0000  -0.0000  -0.0080   0.0000   0.0000   0.0297   0.0003
 227 C_c :2px   -0.0143   0.0160  -0.0000   0.0025  -0.0272   0.0000  -0.0000
 228 C_c :2py    0.0140   0.0180  -0.0000  -0.0029   0.0266  -0.0000  -0.0000
 229 C_c :2pz    0.0000  -0.0000  -0.0615   0.0000   0.0000   0.1035   0.0089
 230 C_c :2px   -0.0012  -0.0094  -0.0000   0.0234   0.0065   0.0000  -0.0000
 231 C_c :2py    0.0060   0.0084   0.0000   0.0149   0.0118  -0.0000  -0.0000
 232 C_c :2pz    0.0000  -0.0000   0.0132   0.0000   0.0000  -0.0183  -0.0415
 233 C_c :2px   -0.0147   0.0095   0.0000  -0.0036   0.0096  -0.0000   0.0000
 234 C_c :2py    0.0120  -0.0098   0.0000   0.0031  -0.0221   0.0000   0.0000
 235 C_c :2pz    0.0000  -0.0000   0.0030  -0.0000   0.0000  -0.0071   0.0190
 241 C_c :3d2-  -0.0137  -0.0168  -0.0000  -0.0007  -0.0002   0.0000  -0.0000
 246 C_c :3d2-   0.0526   0.0629   0.0000   0.0066   0.0052  -0.0000   0.0000
 248 C_c :3d0   -0.0155  -0.0156  -0.0000   0.0037  -0.0001   0.0000   0.0000
 249 C_c :3d1+  -0.0000   0.0000   0.0141   0.0000   0.0000  -0.0308   0.0013
 250 C_c :3d2+   0.0255   0.0207   0.0000   0.0059   0.0115  -0.0000   0.0000
 251 C_c :3d2-   0.0069   0.0355  -0.0000   0.0158   0.0121   0.0000  -0.0000
 252 C_c :3d1-   0.0000  -0.0000  -0.0365   0.0000   0.0000  -0.0305   0.0021
 253 C_c :3d0   -0.0103  -0.0088   0.0000   0.0006   0.0143  -0.0000   0.0000
 254 C_c :3d1+   0.0000   0.0000  -0.0354  -0.0000   0.0000  -0.0746   0.0187
 255 C_c :3d2+   0.0214   0.0011   0.0000  -0.0046  -0.0090   0.0000   0.0000
 256 C_c :3d2-   0.0049  -0.0075   0.0000   0.0182  -0.0070  -0.0000   0.0000
 257 C_c :3d1-  -0.0000   0.0000  -0.0012   0.0000  -0.0000  -0.0262  -0.0088
 258 C_c :3d0   -0.0041   0.0062   0.0000  -0.0056  -0.0131  -0.0000   0.0000
 259 C_c :3d1+  -0.0000   0.0000   0.0071  -0.0000  -0.0000  -0.0581   0.0173
 275 C_c :4f3-   0.0172  -0.0175  -0.0000  -0.0047  -0.0025  -0.0000  -0.0000
 276 C_c :4f2-  -0.0000   0.0000   0.0025   0.0000   0.0000  -0.0278   0.0012
 278 C_c :4f0    0.0000   0.0000  -0.0018  -0.0000  -0.0000   0.0185  -0.0007
 282 C_c :4f3-   0.0257  -0.0335   0.0000  -0.0066   0.0352  -0.0000  -0.0000
 283 C_c :4f2-   0.0000  -0.0000   0.0037  -0.0000   0.0000  -0.0197   0.0076
 285 C_c :4f0   -0.0000   0.0000  -0.0113   0.0000  -0.0000   0.0286   0.0021
 287 C_c :4f2+  -0.0000   0.0000   0.0752  -0.0000  -0.0000  -0.0069  -0.0067
 288 C_c :4f3+   0.0038  -0.0021  -0.0000  -0.0154  -0.0001  -0.0000  -0.0000
 315 C_c :5g4+  -0.0064   0.0114   0.0000   0.0029   0.0004   0.0000  -0.0000
 317 C_d :1s     0.0016  -0.0653   0.0000  -0.0098  -0.0012   0.0000  -0.0000
 319 C_d :1s    -0.0514  -0.0916  -0.0000   0.0038  -0.0032   0.0000  -0.0000
 320 C_d :1s    -0.0010  -0.0099   0.0000  -0.0136   0.0061  -0.0000  -0.0000
 321 C_d :1s    -0.0012   0.0095   0.0000  -0.0211   0.0010  -0.0000  -0.0000
 322 C_d :1s     0.0233   0.0144   0.0000   0.0135  -0.0266  -0.0000   0.0000
 323 C_d :2px   -0.1706  -0.0982  -0.0000   0.0177   0.0027   0.0000   0.0000
 324 C_d :2py    0.1134   0.3746  -0.0000   0.0255   0.0011   0.0000  -0.0000
 325 C_d :2pz    0.0000   0.0000  -0.2203   0.0000   0.0000   0.3569   0.0137
 329 C_d :2px   -0.0238  -0.0020   0.0000  -0.0009  -0.0069   0.0000  -0.0000
 330 C_d :2py    0.0028   0.0311  -0.0000   0.0006   0.0013   0.0000  -0.0000
 331 C_d :2pz    0.0000   0.0000  -0.0166   0.0000   0.0000   0.0334  -0.0020
 332 C_d :2px    0.0227  -0.0013   0.0000  -0.0107   0.0173  -0.0000  -0.0000
 333 C_d :2py   -0.0064  -0.0331   0.0000   0.0551   0.0068  -0.0000   0.0000
 334 C_d :2pz   -0.0000   0.0000  -0.0370   0.0000   0.0000  -0.0171   0.0096
 336 C_d :2py   -0.0019  -0.0229  -0.0000   0.0043  -0.0158   0.0000  -0.0000
 337 C_d :2pz    0.0000  -0.0000  -0.0023   0.0000   0.0000  -0.0666   0.0672
 338 C_d :2px   -0.0030   0.0102   0.0000   0.0003  -0.0074   0.0000   0.0000
 339 C_d :2py   -0.0195   0.0062  -0.0000  -0.0135   0.0028  -0.0000  -0.0000
 340 C_d :2pz    0.0000  -0.0000   0.0206   0.0000   0.0000  -0.0121   0.0185
 346 C_d :3d2-  -0.0091  -0.0198  -0.0000  -0.0006  -0.0000  -0.0000   0.0000
 351 C_d :3d2-   0.0299   0.0753   0.0000  -0.0072   0.0030   0.0000  -0.0000
 352 C_d :3d1-  -0.0000   0.0000   0.0224  -0.0000  -0.0000  -0.0305   0.0013
 353 C_d :3d0   -0.0113  -0.0139  -0.0000  -0.0013  -0.0008   0.0000   0.0000
 354 C_d :3d1+  -0.0000   0.0000   0.0050  -0.0000  -0.0000   0.0133  -0.0002
 355 C_d :3d2+   0.0089   0.0333   0.0000  -0.0002   0.0144  -0.0000  -0.0000
 356 C_d :3d2-   0.0208   0.0112   0.0000  -0.0001  -0.0122   0.0000  -0.0000
 357 C_d :3d1-   0.0000  -0.0000  -0.0767  -0.0000   0.0000  -0.0674   0.0011
 358 C_d :3d0   -0.0146  -0.0025  -0.0000  -0.0182   0.0101   0.0000  -0.0000
 359 C_d :3d1+   0.0000  -0.0000  -0.0677  -0.0000   0.0000  -0.1777   0.0340
 360 C_d :3d2+  -0.0093   0.0185   0.0000  -0.0055  -0.0068  -0.0000  -0.0000
 361 C_d :3d2-   0.0113   0.0180  -0.0000   0.0054  -0.0527   0.0000  -0.0000
 362 C_d :3d1-   0.0000  -0.0000   0.0142  -0.0000  -0.0000   0.0724  -0.0103
 364 C_d :3d1+  -0.0000   0.0000   0.0138  -0.0000   0.0000  -0.0372   0.0263
 365 C_d :3d2+   0.0011   0.0005  -0.0000  -0.0216   0.0076   0.0000   0.0000
 380 C_d :4f3-   0.0333  -0.0004  -0.0000  -0.0004  -0.0097  -0.0000   0.0000
 381 C_d :4f2-  -0.0000   0.0000   0.0134   0.0000   0.0000  -0.0452   0.0037
 383 C_d :4f0    0.0000  -0.0000  -0.0109  -0.0000  -0.0000   0.0284  -0.0008
 385 C_d :4f2+  -0.0000   0.0000   0.0165  -0.0000  -0.0000  -0.0301   0.0014
 387 C_d :4f3-   0.0271   0.0074  -0.0000  -0.0190  -0.0595   0.0000   0.0000
 388 C_d :4f2-   0.0000  -0.0000   0.0356  -0.0000  -0.0000   0.0444   0.0007
 389 C_d :4f1-   0.0059  -0.0015   0.0000   0.0152  -0.0011   0.0000  -0.0000
 390 C_d :4f0    0.0000  -0.0000  -0.0205  -0.0000   0.0000   0.0197  -0.0024
 392 C_d :4f2+   0.0000  -0.0000  -0.0184  -0.0000   0.0000  -0.0165  -0.0220
 393 C_d :4f3+  -0.0093   0.0026   0.0000   0.0368   0.0032  -0.0000  -0.0000
 412 C_d :5g4-   0.0120  -0.0016   0.0000   0.0012  -0.0074   0.0000   0.0000
 419 C_d :5g3+  -0.0000   0.0000   0.0045   0.0000   0.0000  -0.0199   0.0024
 420 C_d :5g4+   0.0168   0.0066  -0.0000  -0.0041  -0.0048   0.0000   0.0000
 422 C_e :1s    -0.0108  -0.0843  -0.0000   0.0092  -0.0002  -0.0000  -0.0000
 424 C_e :1s     0.0127  -0.0967  -0.0000   0.0090  -0.0481   0.0000  -0.0000
 425 C_e :1s    -0.0002  -0.0082   0.0000  -0.0321   0.0129   0.0000   0.0000
 426 C_e :1s    -0.0011   0.0199   0.0000  -0.0115   0.0246  -0.0000  -0.0000
 427 C_e :1s     0.0063   0.0379   0.0000   0.0092  -0.0108   0.0000   0.0000
 428 C_e :2px   -0.0917   0.0877   0.0000  -0.0305  -0.0023  -0.0000  -0.0000
 429 C_e :2py   -0.0258  -0.3665   0.0000  -0.0252  -0.0007  -0.0000   0.0000
 430 C_e :2pz   -0.0000   0.0000  -0.2954  -0.0000  -0.0000   0.2436   0.0022
 434 C_e :2px   -0.0220   0.0027   0.0000   0.0015   0.0262  -0.0000   0.0000
 435 C_e :2py   -0.0111  -0.0286  -0.0000   0.0067   0.0035  -0.0000  -0.0000
 436 C_e :2pz    0.0000   0.0000  -0.0293  -0.0000  -0.0000   0.0280   0.0026
 437 C_e :2px    0.0096  -0.0045  -0.0000  -0.0096  -0.0151   0.0000  -0.0000
 438 C_e :2py    0.0126   0.0172   0.0000  -0.0082  -0.0250   0.0000  -0.0000
 439 C_e :2pz   -0.0000   0.0000  -0.0456  -0.0000   0.0000  -0.0963   0.0277
 441 C_e :2py   -0.0086   0.0105   0.0000  -0.0511   0.0017  -0.0000  -0.0000
 442 C_e :2pz   -0.0000   0.0000  -0.0150   0.0000  -0.0000   0.0242  -0.0498
 443 C_e :2px   -0.0011  -0.0070  -0.0000   0.0199  -0.0204   0.0000  -0.0000
 444 C_e :2py   -0.0137   0.0174  -0.0000  -0.0128   0.0334  -0.0000   0.0000
 445 C_e :2pz   -0.0000   0.0000  -0.0188   0.0000  -0.0000   0.0110  -0.0612
 451 C_e :3d2-   0.0029  -0.0201   0.0000  -0.0015  -0.0005  -0.0000   0.0000
 456 C_e :3d2-  -0.0137   0.0770  -0.0000   0.0103   0.0167   0.0000  -0.0000
 457 C_e :3d1-  -0.0000   0.0000  -0.0098  -0.0000  -0.0000   0.0337  -0.0003
 458 C_e :3d0    0.0021  -0.0174  -0.0000   0.0014  -0.0056   0.0000   0.0000
 459 C_e :3d1+  -0.0000   0.0000   0.0297  -0.0000  -0.0000   0.0046  -0.0043
 460 C_e :3d2+  -0.0017   0.0293   0.0000  -0.0058   0.0006  -0.0000  -0.0000
 461 C_e :3d2-  -0.0108   0.0226  -0.0000  -0.0199  -0.0152   0.0000  -0.0000
 462 C_e :3d1-   0.0000  -0.0000  -0.0047  -0.0000   0.0000  -0.1513   0.0193
 463 C_e :3d0    0.0032  -0.0234   0.0000  -0.0092  -0.0097   0.0000   0.0000
 464 C_e :3d1+   0.0000  -0.0000  -0.0517  -0.0000   0.0000  -0.0268  -0.0323
 465 C_e :3d2+   0.0114   0.0159  -0.0000   0.0179  -0.0196  -0.0000   0.0000
 466 C_e :3d2-   0.0030  -0.0098  -0.0000   0.0150  -0.0118   0.0000   0.0000
 467 C_e :3d1-  -0.0000   0.0000   0.0305  -0.0000  -0.0000  -0.0363   0.0201
 468 C_e :3d0    0.0040  -0.0031   0.0000  -0.0198   0.0307  -0.0000  -0.0000
 469 C_e :3d1+  -0.0000   0.0000   0.0217   0.0000  -0.0000   0.0771  -0.0193
 470 C_e :3d2+   0.0006  -0.0078   0.0000   0.0038   0.0274   0.0000  -0.0000
 485 C_e :4f3-   0.0392  -0.0002   0.0000  -0.0109  -0.0087   0.0000  -0.0000
 486 C_e :4f2-   0.0000   0.0000   0.0358  -0.0000   0.0000  -0.0422   0.0006
 488 C_e :4f0    0.0000  -0.0000  -0.0199   0.0000   0.0000   0.0270  -0.0003
 490 C_e :4f2+  -0.0000   0.0000   0.0083  -0.0000   0.0000  -0.0314   0.0035
 491 C_e :4f3+  -0.0086  -0.0066  -0.0000   0.0070   0.0119  -0.0000  -0.0000
 492 C_e :4f3-   0.0412  -0.0053   0.0000   0.0362   0.0557  -0.0000   0.0000
 493 C_e :4f2-   0.0000  -0.0000  -0.0151   0.0000   0.0000   0.0308  -0.0005
 494 C_e :4f1-   0.0062  -0.0049   0.0000   0.0150  -0.0017   0.0000  -0.0000
 495 C_e :4f0    0.0000  -0.0000  -0.0230  -0.0000   0.0000  -0.0052   0.0087
 496 C_e :4f1+   0.0078  -0.0020   0.0000   0.0197  -0.0042  -0.0000  -0.0000
 497 C_e :4f2+  -0.0000   0.0000   0.0456   0.0000  -0.0000   0.0712  -0.0295
 498 C_e :4f3+  -0.0113   0.0037  -0.0000  -0.0028  -0.0075   0.0000  -0.0000
 517 C_e :5g4-  -0.0189  -0.0005  -0.0000   0.0054   0.0072   0.0000  -0.0000
 524 C_e :5g3+   0.0000  -0.0000  -0.0123   0.0000   0.0000   0.0171   0.0009
 525 C_e :5g4+  -0.0177   0.0042  -0.0000   0.0001  -0.0028   0.0000   0.0000
 527 C_f :1s     0.0383  -0.0432   0.0000  -0.0174  -0.0063   0.0000   0.0000
 529 C_f :1s     0.0553  -0.0971  -0.0000   0.0270  -0.0029  -0.0000   0.0000
 531 C_f :1s    -0.0062   0.0119   0.0000   0.0012   0.0118  -0.0000  -0.0000
 532 C_f :1s    -0.0243   0.0300  -0.0000   0.0209  -0.0279   0.0000   0.0000
 533 C_f :2px    0.0660  -0.1099  -0.0000   0.0361   0.0050   0.0000   0.0000
 534 C_f :2py   -0.2755   0.2713  -0.0000   0.0485   0.0129  -0.0000   0.0000
 535 C_f :2pz   -0.0000   0.0000  -0.3393  -0.0000  -0.0000   0.1097  -0.0061
 539 C_f :2px   -0.0114  -0.0203  -0.0000  -0.0037   0.0138  -0.0000   0.0000
 540 C_f :2py   -0.0260   0.0227   0.0000  -0.0067   0.0069  -0.0000   0.0000
 541 C_f :2pz   -0.0000   0.0000  -0.0330  -0.0000  -0.0000   0.0106  -0.0004
 542 C_f :2px   -0.0092   0.0125   0.0000  -0.0208   0.0367  -0.0000   0.0000
 543 C_f :2py    0.0255  -0.0231   0.0000   0.0234   0.0027   0.0000  -0.0000
 544 C_f :2pz   -0.0000   0.0000   0.0165  -0.0000  -0.0000   0.0166  -0.0586
 545 C_f :2px   -0.0047   0.0176   0.0000   0.0063   0.0409  -0.0000   0.0000
 546 C_f :2py    0.0084  -0.0121  -0.0000   0.0036  -0.0445   0.0000   0.0000
 547 C_f :2pz   -0.0000   0.0000   0.0149  -0.0000  -0.0000   0.0309  -0.0315
 548 C_f :2px   -0.0150  -0.0015  -0.0000   0.0031   0.0232  -0.0000  -0.0000
 549 C_f :2py    0.0163  -0.0130   0.0000   0.0234  -0.0054   0.0000   0.0000
 550 C_f :2pz   -0.0000   0.0000  -0.0201  -0.0000  -0.0000   0.0155  -0.0089
 556 C_f :3d2-   0.0122  -0.0176   0.0000  -0.0007  -0.0002  -0.0000  -0.0000
 561 C_f :3d2-  -0.0387   0.0672  -0.0000  -0.0002   0.0243   0.0000  -0.0000
 562 C_f :3d1-   0.0000  -0.0000   0.0264   0.0000   0.0000   0.0172  -0.0028
 563 C_f :3d0    0.0112  -0.0139  -0.0000   0.0015  -0.0004  -0.0000  -0.0000
 564 C_f :3d1+   0.0000  -0.0000  -0.0123   0.0000  -0.0000   0.0412  -0.0045
 565 C_f :3d2+  -0.0179   0.0173   0.0000  -0.0147   0.0174  -0.0000   0.0000
 566 C_f :3d2-  -0.0025   0.0149  -0.0000   0.0306   0.0025  -0.0000   0.0000
 567 C_f :3d1-   0.0000  -0.0000  -0.1161   0.0000   0.0000  -0.0399   0.0194
 568 C_f :3d0   -0.0002  -0.0074  -0.0000  -0.0238  -0.0225  -0.0000  -0.0000
 569 C_f :3d1+   0.0000  -0.0000  -0.0241   0.0000  -0.0000  -0.0571  -0.0659
 570 C_f :3d2+  -0.0122   0.0123   0.0000  -0.0206  -0.0082   0.0000   0.0000
 571 C_f :3d2-  -0.0043   0.0016  -0.0000   0.0184   0.0319  -0.0000   0.0000
 572 C_f :3d1-  -0.0000   0.0000  -0.0235   0.0000  -0.0000   0.0123  -0.0102
 573 C_f :3d0   -0.0009  -0.0037  -0.0000  -0.0187  -0.0121  -0.0000  -0.0000
 574 C_f :3d1+  -0.0000   0.0000   0.0211  -0.0000  -0.0000   0.0405  -0.0193
 575 C_f :3d2+  -0.0050   0.0061  -0.0000   0.0129  -0.0059   0.0000  -0.0000
 590 C_f :4f3-   0.0276   0.0227  -0.0000   0.0211  -0.0027   0.0000  -0.0000
 591 C_f :4f2-   0.0000   0.0000   0.0422  -0.0000   0.0000  -0.0219  -0.0037
 593 C_f :4f0    0.0000  -0.0000  -0.0283   0.0000   0.0000   0.0091   0.0014
 595 C_f :4f2+  -0.0000  -0.0000   0.0207   0.0000  -0.0000   0.0129  -0.0052
 596 C_f :4f3+  -0.0121   0.0023   0.0000   0.0007   0.0198  -0.0000   0.0000
 597 C_f :4f3-   0.0295   0.0261  -0.0000   0.0125  -0.0360  -0.0000   0.0000
 598 C_f :4f2-  -0.0000   0.0000   0.0061   0.0000   0.0000   0.0428   0.0071
 599 C_f :4f1-   0.0085   0.0023   0.0000   0.0151   0.0056   0.0000   0.0000
 600 C_f :4f0    0.0000  -0.0000  -0.0145   0.0000   0.0000   0.0063  -0.0132
 601 C_f :4f1+   0.0067   0.0017   0.0000   0.0140  -0.0043  -0.0000   0.0000
 602 C_f :4f2+  -0.0000  -0.0000  -0.0042   0.0000  -0.0000  -0.0508  -0.0198
 603 C_f :4f3+  -0.0015  -0.0070   0.0000   0.0321   0.0710  -0.0000  -0.0000
 622 C_f :5g4-   0.0147   0.0088  -0.0000   0.0021  -0.0096   0.0000   0.0000
 629 C_f :5g3+   0.0000   0.0000   0.0142  -0.0000  -0.0000  -0.0039  -0.0015
 630 C_f :5g4+   0.0099   0.0139   0.0000   0.0103   0.0015  -0.0000  -0.0000
 632 C_g :1s     0.0547  -0.0721   0.0000   0.0228  -0.0084  -0.0000  -0.0000
 634 C_g :1s     0.0849  -0.0631   0.0000  -0.0014  -0.0464  -0.0000   0.0000
 635 C_g :1s     0.0076   0.0005   0.0000  -0.0000   0.0145  -0.0000   0.0000
 636 C_g :1s    -0.0124   0.0160   0.0000  -0.0203   0.0368  -0.0000  -0.0000
 637 C_g :1s    -0.0373   0.0306  -0.0000   0.0161   0.0279   0.0000   0.0000
 638 C_g :2px   -0.1741   0.0066   0.0000  -0.0722   0.0185   0.0000   0.0000
 639 C_g :2py    0.3005  -0.2408   0.0000  -0.0467  -0.0176   0.0000  -0.0000
 640 C_g :2pz   -0.0000  -0.0000  -0.3531  -0.0000  -0.0000  -0.1357  -0.0137
 644 C_g :2px   -0.0112  -0.0015  -0.0000  -0.0030   0.0118   0.0000  -0.0000
 645 C_g :2py    0.0190  -0.0258   0.0000  -0.0174   0.0019  -0.0000  -0.0000
 646 C_g :2pz   -0.0000  -0.0000  -0.0359  -0.0000  -0.0000  -0.0155   0.0001
 647 C_g :2px    0.0205  -0.0034   0.0000   0.0194   0.0255  -0.0000   0.0000
 648 C_g :2py   -0.0158   0.0180  -0.0000  -0.0142  -0.0584  -0.0000  -0.0000
 649 C_g :2pz   -0.0000  -0.0000  -0.0366   0.0000  -0.0000   0.0185   0.0140
 650 C_g :2px    0.0107  -0.0169   0.0000   0.0348   0.0031   0.0000   0.0000
 651 C_g :2py   -0.0165   0.0152   0.0000  -0.0256   0.0198  -0.0000  -0.0000
 652 C_g :2pz   -0.0000   0.0000   0.0420  -0.0000  -0.0000  -0.0021   0.0599
 653 C_g :2px   -0.0008  -0.0024   0.0000  -0.0216   0.0209  -0.0000   0.0000
 654 C_g :2py   -0.0049  -0.0176  -0.0000   0.0310  -0.0272   0.0000  -0.0000
 655 C_g :2pz    0.0000  -0.0000   0.0309  -0.0000   0.0000  -0.0103   0.0897
 661 C_g :3d2-   0.0182  -0.0115  -0.0000  -0.0020  -0.0019   0.0000   0.0000
 666 C_g :3d2-  -0.0622   0.0513   0.0000  -0.0317   0.0052  -0.0000  -0.0000
 667 C_g :3d1-   0.0000  -0.0000  -0.0278   0.0000   0.0000   0.0114  -0.0024
 668 C_g :3d0    0.0177  -0.0089  -0.0000  -0.0049  -0.0138   0.0000   0.0000
 669 C_g :3d1+   0.0000  -0.0000   0.0126   0.0000   0.0000   0.0420   0.0008
 670 C_g :3d2+  -0.0231   0.0134   0.0000  -0.0231   0.0021  -0.0000   0.0000
 671 C_g :3d2-  -0.0311   0.0161  -0.0000   0.0031  -0.0459  -0.0000   0.0000
 672 C_g :3d1-   0.0000  -0.0000  -0.0285   0.0000   0.0000  -0.0611  -0.0154
 673 C_g :3d0    0.0151  -0.0088   0.0000  -0.0320  -0.0014   0.0000   0.0000
 674 C_g :3d1+  -0.0000   0.0000  -0.0943   0.0000   0.0000  -0.1076   0.0487
 675 C_g :3d2+  -0.0005   0.0192  -0.0000   0.0191  -0.0213   0.0000  -0.0000
 676 C_g :3d2-  -0.0100   0.0012  -0.0000   0.0131  -0.0389   0.0000   0.0000
 677 C_g :3d1-   0.0000  -0.0000   0.0178   0.0000   0.0000   0.0721  -0.0022
 678 C_g :3d0   -0.0005   0.0023   0.0000   0.0211   0.0169  -0.0000   0.0000
 679 C_g :3d1+   0.0000  -0.0000  -0.0145   0.0000   0.0000  -0.0188   0.0345
 680 C_g :3d2+  -0.0112  -0.0032  -0.0000  -0.0467  -0.0492   0.0000   0.0000
 695 C_g :4f3-   0.0141   0.0097   0.0000  -0.0046  -0.0024  -0.0000   0.0000
 696 C_g :4f2-   0.0000  -0.0000   0.0393   0.0000  -0.0000   0.0329   0.0002
 698 C_g :4f0    0.0000   0.0000  -0.0247  -0.0000   0.0000  -0.0135   0.0014
 700 C_g :4f2+  -0.0000   0.0000   0.0201  -0.0000  -0.0000  -0.0092  -0.0025
 701 C_g :4f3+   0.0006  -0.0102   0.0000   0.0147   0.0138   0.0000  -0.0000
 702 C_g :4f3-   0.0242   0.0115   0.0000   0.0544   0.0820  -0.0000  -0.0000
 703 C_g :4f2-   0.0000  -0.0000   0.0015  -0.0000   0.0000  -0.0579   0.0619
 704 C_g :4f1-   0.0109  -0.0056   0.0000   0.0244   0.0046  -0.0000   0.0000
 705 C_g :4f0    0.0000  -0.0000  -0.0258   0.0000   0.0000  -0.0042  -0.0133
 706 C_g :4f1+   0.0139  -0.0040   0.0000   0.0352   0.0060  -0.0000   0.0000
 707 C_g :4f2+  -0.0000   0.0000   0.0240  -0.0000  -0.0000   0.0438  -0.0280
 708 C_g :4f3+  -0.0088  -0.0177  -0.0000   0.0131  -0.0231  -0.0000   0.0000
 728 C_g :5g3-  -0.0000   0.0000  -0.0006  -0.0000  -0.0000  -0.0103  -0.0031
 734 C_g :5g3+   0.0000   0.0000  -0.0145   0.0000   0.0000  -0.0073  -0.0005
 735 C_g :5g4+  -0.0101  -0.0007  -0.0000   0.0012   0.0011   0.0000  -0.0000
 737 C_h :1s     0.0369  -0.0065  -0.0000  -0.0356  -0.0058   0.0000   0.0000
 739 C_h :1s     0.0849  -0.0427   0.0000   0.0176  -0.0386  -0.0000   0.0000
 740 C_h :1s     0.0023  -0.0005   0.0000   0.0100   0.0076  -0.0000  -0.0000
 741 C_h :1s    -0.0142   0.0114   0.0000  -0.0030   0.0120  -0.0000  -0.0000
 742 C_h :1s    -0.0417  -0.0042  -0.0000   0.0218  -0.0297   0.0000  -0.0000
 743 C_h :2px    0.1824  -0.0334  -0.0000   0.0835  -0.0196  -0.0000  -0.0000
 744 C_h :2py   -0.2505   0.0914   0.0000   0.0842   0.0555   0.0000  -0.0000
 745 C_h :2pz    0.0000  -0.0000  -0.3441   0.0000   0.0000  -0.2673  -0.0160
 749 C_h :2px    0.0121  -0.0157  -0.0000   0.0092   0.0029   0.0000  -0.0000
 750 C_h :2py   -0.0197   0.0017  -0.0000   0.0060   0.0010   0.0000  -0.0000
 751 C_h :2pz    0.0000  -0.0000  -0.0266   0.0000   0.0000  -0.0259  -0.0073
 752 C_h :2px   -0.0065   0.0127  -0.0000  -0.0192   0.0005   0.0000  -0.0000
 753 C_h :2py    0.0065  -0.0132  -0.0000  -0.0409   0.0195  -0.0000  -0.0000
 754 C_h :2pz   -0.0000   0.0000  -0.0567   0.0000  -0.0000   0.0305  -0.0315
 755 C_h :2px   -0.0164   0.0185   0.0000  -0.0965   0.0013   0.0000  -0.0000
 756 C_h :2py    0.0024  -0.0119  -0.0000   0.0454   0.0168   0.0000  -0.0000
 757 C_h :2pz    0.0000  -0.0000  -0.0169   0.0000   0.0000  -0.0044  -0.0136
 758 C_h :2px    0.0030  -0.0145   0.0000   0.0034  -0.0289   0.0000   0.0000
 759 C_h :2py   -0.0137   0.0079  -0.0000  -0.0303   0.0219  -0.0000  -0.0000
 760 C_h :2pz    0.0000  -0.0000   0.0033   0.0000   0.0000  -0.0114  -0.0179
 766 C_h :3d2-   0.0167  -0.0077  -0.0000  -0.0009  -0.0032  -0.0000   0.0000
 771 C_h :3d2-  -0.0645   0.0446  -0.0000  -0.0060  -0.0021   0.0000  -0.0000
 772 C_h :3d1-   0.0000  -0.0000   0.0119   0.0000   0.0000   0.0326   0.0062
 773 C_h :3d0    0.0157  -0.0050   0.0000   0.0090  -0.0127  -0.0000   0.0000
 774 C_h :3d1+   0.0000  -0.0000  -0.0276   0.0000   0.0000  -0.0002   0.0069
 775 C_h :3d2+  -0.0122   0.0075  -0.0000  -0.0087   0.0224   0.0000  -0.0000
 776 C_h :3d2-  -0.0233   0.0185  -0.0000   0.0294   0.0291  -0.0000   0.0000
 777 C_h :3d1-   0.0000  -0.0000  -0.0355  -0.0000   0.0000  -0.0812   0.0176
 778 C_h :3d0    0.0131  -0.0079   0.0000   0.0265  -0.0151  -0.0000  -0.0000
 779 C_h :3d1+  -0.0000   0.0000  -0.0134   0.0000   0.0000  -0.0428  -0.0175
 780 C_h :3d2+  -0.0149  -0.0007   0.0000  -0.0129  -0.0366   0.0000  -0.0000
 781 C_h :3d2-   0.0024  -0.0116   0.0000   0.0332  -0.0088   0.0000   0.0000
 782 C_h :3d1-  -0.0000   0.0000   0.0025   0.0000   0.0000  -0.0348   0.0371
 783 C_h :3d0    0.0106   0.0019   0.0000  -0.0063  -0.0051  -0.0000   0.0000
 784 C_h :3d1+  -0.0000   0.0000  -0.0179   0.0000   0.0000   0.0064  -0.0089
 785 C_h :3d2+  -0.0051  -0.0088   0.0000  -0.0171   0.0048  -0.0000  -0.0000
 800 C_h :4f3-  -0.0062   0.0224   0.0000   0.0110  -0.0003  -0.0000   0.0000
 801 C_h :4f2-  -0.0000   0.0000   0.0332   0.0000  -0.0000   0.0439   0.0009
 803 C_h :4f0    0.0000  -0.0000  -0.0208  -0.0000   0.0000  -0.0254  -0.0011
 804 C_h :4f1+   0.0013  -0.0039   0.0000   0.0135  -0.0062  -0.0000   0.0000
 805 C_h :4f2+   0.0000  -0.0000   0.0066   0.0000   0.0000   0.0184   0.0004
 807 C_h :4f3-   0.0049   0.0284   0.0000   0.0376  -0.0126  -0.0000  -0.0000
 808 C_h :4f2-   0.0000  -0.0000   0.0045  -0.0000   0.0000  -0.0388   0.0437
 810 C_h :4f0   -0.0000   0.0000  -0.0231   0.0000  -0.0000  -0.0122   0.0166
 811 C_h :4f1+   0.0136   0.0012  -0.0000   0.0447  -0.0020  -0.0000   0.0000
 812 C_h :4f2+   0.0000  -0.0000   0.0202  -0.0000   0.0000  -0.0453  -0.0216
 813 C_h :4f3+  -0.0006  -0.0067   0.0000  -0.0251   0.0373  -0.0000   0.0000
 832 C_h :5g4-  -0.0004   0.0112   0.0000   0.0132  -0.0040  -0.0000  -0.0000
 834 C_h :5g2-   0.0040  -0.0043   0.0000  -0.0032   0.0100   0.0000  -0.0000
 839 C_h :5g3+  -0.0000   0.0000   0.0100   0.0000  -0.0000   0.0153  -0.0037
 840 C_h :5g4+  -0.0060   0.0102   0.0000   0.0106  -0.0018  -0.0000  -0.0000
 842 C_i :1s     0.0630  -0.0409   0.0000   0.0285   0.0490  -0.0000  -0.0000
 844 C_i :1s     0.0598  -0.0177  -0.0000   0.0732   0.0868   0.0000  -0.0000
 845 C_i :1s     0.0036   0.0099   0.0000  -0.0110   0.0229  -0.0000  -0.0000
 846 C_i :1s     0.0004   0.0034   0.0000   0.0081   0.0143  -0.0000   0.0000
 847 C_i :1s    -0.0107  -0.0266  -0.0000   0.0120   0.0367   0.0000  -0.0000
 848 C_i :2px   -0.0464  -0.0180  -0.0000  -0.1412  -0.0092   0.0000   0.0000
 849 C_i :2py    0.2140  -0.0793  -0.0000  -0.0754  -0.0806  -0.0000   0.0000
 850 C_i :2pz    0.0000  -0.0000  -0.2546   0.0000   0.0000  -0.3144  -0.0089
 854 C_i :2px    0.0082  -0.0048   0.0000  -0.0192  -0.0157  -0.0000   0.0000
 855 C_i :2py    0.0223  -0.0133  -0.0000  -0.0148   0.0081   0.0000  -0.0000
 856 C_i :2pz    0.0000  -0.0000  -0.0207   0.0000   0.0000  -0.0285   0.0017
 857 C_i :2px    0.0102   0.0092  -0.0000   0.0386   0.0082   0.0000  -0.0000
 858 C_i :2py   -0.0064   0.0022   0.0000   0.0553   0.0196   0.0000  -0.0000
 859 C_i :2pz   -0.0000   0.0000  -0.0183   0.0000   0.0000   0.0401  -0.0218
 860 C_i :2px    0.0016   0.0112  -0.0000   0.0077  -0.0338  -0.0000  -0.0000
 861 C_i :2py   -0.0214   0.0209  -0.0000  -0.0468   0.0536  -0.0000  -0.0000
 862 C_i :2pz    0.0000  -0.0000   0.0291  -0.0000   0.0000  -0.0284   0.0761
 864 C_i :2py    0.0029   0.0032   0.0000  -0.0320   0.0075  -0.0000   0.0000
 865 C_i :2pz   -0.0000   0.0000  -0.0191   0.0000  -0.0000   0.0051  -0.0649
 876 C_i :3d2-  -0.0403   0.0096  -0.0000   0.0059   0.0014   0.0000   0.0000
 877 C_i :3d1-   0.0000  -0.0000  -0.0253  -0.0000   0.0000  -0.0277  -0.0009
 878 C_i :3d0    0.0116  -0.0010  -0.0000   0.0131   0.0084  -0.0000   0.0000
 879 C_i :3d1+   0.0000  -0.0000   0.0026   0.0000   0.0000   0.0118   0.0000
 880 C_i :3d2+  -0.0187   0.0044  -0.0000   0.0106   0.0444   0.0000  -0.0000
 881 C_i :3d2-  -0.0185  -0.0122  -0.0000   0.0536  -0.0354   0.0000   0.0000
 882 C_i :3d1-   0.0000  -0.0000   0.0032   0.0000   0.0000   0.0019   0.0345
 883 C_i :3d0    0.0193   0.0100  -0.0000   0.0433   0.0128  -0.0000   0.0000
 884 C_i :3d1+   0.0000  -0.0000  -0.0237  -0.0000   0.0000  -0.1386   0.0183
 885 C_i :3d2+  -0.0133   0.0035   0.0000  -0.0866  -0.0042   0.0000  -0.0000
 886 C_i :3d2-   0.0043  -0.0050  -0.0000   0.0375  -0.0618  -0.0000  -0.0000
 887 C_i :3d1-  -0.0000   0.0000  -0.0189   0.0000  -0.0000  -0.0070  -0.0260
 888 C_i :3d0   -0.0008   0.0013   0.0000  -0.0275   0.0063   0.0000  -0.0000
 889 C_i :3d1+   0.0000  -0.0000   0.0073  -0.0000  -0.0000   0.0128  -0.0184
 905 C_i :4f3-  -0.0125   0.0143  -0.0000  -0.0270  -0.0027   0.0000  -0.0000
 906 C_i :4f2-   0.0000   0.0000   0.0187   0.0000   0.0000   0.0373   0.0090
 908 C_i :4f0    0.0000  -0.0000  -0.0112   0.0000  -0.0000  -0.0216  -0.0099
 910 C_i :4f2+  -0.0000   0.0000   0.0116  -0.0000  -0.0000   0.0150  -0.0089
 911 C_i :4f3+   0.0005  -0.0051  -0.0000  -0.0138  -0.0586  -0.0000   0.0000
 912 C_i :4f3-  -0.0097   0.0157  -0.0000   0.0303   0.0653  -0.0000  -0.0000
 913 C_i :4f2-   0.0000  -0.0000   0.0176  -0.0000   0.0000  -0.0225  -0.0103
 914 C_i :4f1-   0.0121  -0.0027  -0.0000   0.0295  -0.0007  -0.0000   0.0000
 915 C_i :4f0   -0.0000   0.0000  -0.0124   0.0000  -0.0000   0.0052  -0.0226
 918 C_i :4f3+   0.0183  -0.0074  -0.0000   0.1231  -0.0402  -0.0000   0.0000
 937 C_i :5g4-   0.0079  -0.0069   0.0000   0.0144  -0.0135   0.0000  -0.0000
 944 C_i :5g3+   0.0000  -0.0000  -0.0058  -0.0000   0.0000  -0.0138  -0.0012
 947 C_j :1s     0.0004   0.0180   0.0000  -0.1052   0.0156  -0.0000  -0.0000
 948 C_j :1s     0.0004  -0.0009   0.0000   0.0148   0.0002   0.0000   0.0000
 949 C_j :1s     0.0061   0.0077  -0.0000  -0.1104  -0.0807  -0.0000  -0.0000
 950 C_j :1s     0.0023   0.0032   0.0000  -0.0285   0.0248  -0.0000   0.0000
[...]
      ----------------------------------------------------------------
         1    2.15849D-02  0.00D+00  2.16D-02  2.36D+01    0.00000D+00
         2    2.24679D-02  0.00D+00  2.25D-02  2.45D+01    2.15000D-02
         3    2.55274D-02  0.00D+00  2.55D-02  2.74D+01    4.30000D-02

 *** THE REQUESTED    3 SOLUTION VECTORS CONVERGED

 Convergence of RSP solution vectors, threshold = 1.00D-03
 ---------------------------------------------------------------
 (dimension of paired reduced space:   42)
 RSP solution vector no.    1; norm of residual   9.14D-04
 RSP solution vector no.    2; norm of residual   9.18D-04
 RSP solution vector no.    3; norm of residual   9.33D-04

 *** RSPCTL MICROITERATIONS CONVERGED

@ QRLRVE: SINGLET SOLUTION FOR SYMMETRY    1  ( A  )    LABEL   YDIPLEN     FREQUENCY   0.000000D+00

@ QRLRVE:  << XDIPLEN  ; YDIPLEN  >> (   0.00000):     198.812675651    

@ QRLRVE:  << YDIPLEN  ; YDIPLEN  >> (   0.00000):     240.502419718    

@ QRLRVE:  << ZDIPLEN  ; YDIPLEN  >> (   0.00000):    2.579137695420E-14

@ QRLRVE: SINGLET SOLUTION FOR SYMMETRY    1  ( A  )    LABEL   YDIPLEN     FREQUENCY   0.215000D-01

@ QRLRVE:  << XDIPLEN  ; YDIPLEN  >> (   0.02150):     204.537039266    

@ QRLRVE:  << YDIPLEN  ; YDIPLEN  >> (   0.02150):     244.062688309    

@ QRLRVE:  << ZDIPLEN  ; YDIPLEN  >> (   0.02150):    2.596791897556E-14

@ QRLRVE: SINGLET SOLUTION FOR SYMMETRY    1  ( A  )    LABEL   YDIPLEN     FREQUENCY   0.430000D-01

@ QRLRVE:  << XDIPLEN  ; YDIPLEN  >> (   0.04300):     223.868946762    

@ QRLRVE:  << YDIPLEN  ; YDIPLEN  >> (   0.04300):     256.016894699    

@ QRLRVE:  << ZDIPLEN  ; YDIPLEN  >> (   0.04300):    2.650748339481E-14


 QRLRVE -- linear response calculation for symmetry  1  ( A  )
 QRLRVE -- operator label : ZDIPLEN 
 QRLRVE -- operator spin  :   0
 QRLRVE -- frequencies :  0.000000  0.021500  0.043000



 ---  SOLVING SETS OF LINEAR EQUATIONS FOR LINEAR RESPONSE PROPERTIES ---

 Operator symmetry = 1  ( A  ); triplet =   F


 ** RSPCTL MICROITERATION NUMBER    1

       No.  Residual tot.,    conf., and orb.    Bnorm      Frequency 
      ----------------------------------------------------------------
         1    3.11788D+00  0.00D+00  3.12D+00  7.50D+00    0.00000D+00
         2    3.12104D+00  0.00D+00  3.12D+00  7.52D+00    2.15000D-02
         3    3.13062D+00  0.00D+00  3.13D+00  7.61D+00    4.30000D-02

 ** RSPCTL MICROITERATION NUMBER    2

       No.  Residual tot.,    conf., and orb.    Bnorm      Frequency 
      ----------------------------------------------------------------
         1    8.10065D-01  0.00D+00  8.10D-01  7.86D+00    0.00000D+00
         2    8.12416D-01  0.00D+00  8.12D-01  7.90D+00    2.15000D-02
         3    8.19580D-01  0.00D+00  8.20D-01  7.99D+00    4.30000D-02

 ** RSPCTL MICROITERATION NUMBER    3

       No.  Residual tot.,    conf., and orb.    Bnorm      Frequency 
      ----------------------------------------------------------------
         1    1.67619D-01  0.00D+00  1.68D-01  7.90D+00    0.00000D+00
         2    1.69014D-01  0.00D+00  1.69D-01  7.93D+00    2.15000D-02
         3    1.73299D-01  0.00D+00  1.73D-01  8.02D+00    4.30000D-02

 ** RSPCTL MICROITERATION NUMBER    4

       No.  Residual tot.,    conf., and orb.    Bnorm      Frequency 
      ----------------------------------------------------------------
         1    4.66833D-02  0.00D+00  4.67D-02  7.90D+00    0.00000D+00
         2    4.76385D-02  0.00D+00  4.76D-02  7.93D+00    2.15000D-02
         3    5.06698D-02  0.00D+00  5.07D-02  8.03D+00    4.30000D-02

 ** RSPCTL MICROITERATION NUMBER    5

       No.  Residual tot.,    conf., and orb.    Bnorm      Frequency 
      ----------------------------------------------------------------
         1    1.78457D-02  0.00D+00  1.78D-02  7.90D+00    0.00000D+00
         2    1.85440D-02  0.00D+00  1.85D-02  7.93D+00    2.15000D-02
         3    2.07807D-02  0.00D+00  2.08D-02  8.03D+00    4.30000D-02

 ** RSPCTL MICROITERATION NUMBER    6

       No.  Residual tot.,    conf., and orb.    Bnorm      Frequency 
      ----------------------------------------------------------------
         1    7.15169D-03  0.00D+00  7.15D-03  7.90D+00    0.00000D+00
         2    7.53193D-03  0.00D+00  7.53D-03  7.93D+00    2.15000D-02
         3    8.77372D-03  0.00D+00  8.77D-03  8.03D+00    4.30000D-02

 ** RSPCTL MICROITERATION NUMBER    7

       No.  Residual tot.,    conf., and orb.    Bnorm      Frequency 
      ----------------------------------------------------------------
         1    1.90925D-03  0.00D+00  1.91D-03  7.90D+00    0.00000D+00
         2    2.02892D-03  0.00D+00  2.03D-03  7.93D+00    2.15000D-02
         3    2.47953D-03  0.00D+00  2.48D-03  8.03D+00    4.30000D-02

 *** THE REQUESTED    3 SOLUTION VECTORS CONVERGED

 Convergence of RSP solution vectors, threshold = 1.00D-03
 ---------------------------------------------------------------
 (dimension of paired reduced space:   38)
 RSP solution vector no.    1; norm of residual   2.42D-04
 RSP solution vector no.    2; norm of residual   2.56D-04
 RSP solution vector no.    3; norm of residual   3.09D-04

 *** RSPCTL MICROITERATIONS CONVERGED

@ QRLRVE: SINGLET SOLUTION FOR SYMMETRY    1  ( A  )    LABEL   ZDIPLEN     FREQUENCY   0.000000D+00

@ QRLRVE:  << XDIPLEN  ; ZDIPLEN  >> (   0.00000):   -1.052059368154E-14

@ QRLRVE:  << YDIPLEN  ; ZDIPLEN  >> (   0.00000):    3.538546413239E-14

@ QRLRVE:  << ZDIPLEN  ; ZDIPLEN  >> (   0.00000):     89.8953730416    

@ QRLRVE: SINGLET SOLUTION FOR SYMMETRY    1  ( A  )    LABEL   ZDIPLEN     FREQUENCY   0.215000D-01

@ QRLRVE:  << XDIPLEN  ; ZDIPLEN  >> (   0.02150):   -1.204972192729E-14

@ QRLRVE:  << YDIPLEN  ; ZDIPLEN  >> (   0.02150):    3.634575488584E-14

@ QRLRVE:  << ZDIPLEN  ; ZDIPLEN  >> (   0.02150):     90.0401909475    

@ QRLRVE: SINGLET SOLUTION FOR SYMMETRY    1  ( A  )    LABEL   ZDIPLEN     FREQUENCY   0.430000D-01

@ QRLRVE:  << XDIPLEN  ; ZDIPLEN  >> (   0.04300):   -1.713481823721E-14

@ QRLRVE:  << YDIPLEN  ; ZDIPLEN  >> (   0.04300):    3.944985922309E-14

@ QRLRVE:  << ZDIPLEN  ; ZDIPLEN  >> (   0.04300):     90.4799281644    
 
 ======================================================================
 ---  L I N E A R   R E S P O N S E   F U N C T I O N S --- 
 ======================================================================

 The -<<A;B>>(omega_b) functions from vectors generated
 in a *QUADRA calculation of <<A;B,C>>(omega_b,omega_c)

 Note: the accuracy of off-diagonal elements will be linear
 in the convergence threshold THCLR =  1.00D-03


 Perturbation symmetry.     KSYMOP:           1
 Perturbation spin symmetry.TRPLET:           F
 Orbital variables.         KZWOPT:      104346
 Configuration variables.   KZCONF:           0
 Total number of variables. KZVAR :      104346

@ Singlet linear response function in a.u.

@ A operator, symmetry, frequency:   XDIPLEN    1 -0.000000
@ B operator, symmetry, frequency:   XDIPLEN    1  0.000000

@ Value of linear response -<<A;B>>(omega):     475.975098621460

@ Singlet linear response function in a.u.

@ A operator, symmetry, frequency:   YDIPLEN    1 -0.000000
@ B operator, symmetry, frequency:   XDIPLEN    1  0.000000

@ Value of linear response -<<A;B>>(omega):     198.801576780869

@ Singlet linear response function in a.u.

@ A operator, symmetry, frequency:   ZDIPLEN    1 -0.000000
@ B operator, symmetry, frequency:   XDIPLEN    1  0.000000

@ Value of linear response -<<A;B>>(omega):       0.000000000000

@ Singlet linear response function in a.u.

@ A operator, symmetry, frequency:   XDIPLEN    1 -0.021500
@ B operator, symmetry, frequency:   XDIPLEN    1  0.021500

@ Value of linear response -<<A;B>>(omega):     486.127292202893

@ Singlet linear response function in a.u.

@ A operator, symmetry, frequency:   YDIPLEN    1 -0.021500
@ B operator, symmetry, frequency:   XDIPLEN    1  0.021500

@ Value of linear response -<<A;B>>(omega):     204.525178350434

@ Singlet linear response function in a.u.

@ A operator, symmetry, frequency:   ZDIPLEN    1 -0.021500
@ B operator, symmetry, frequency:   XDIPLEN    1  0.021500

@ Value of linear response -<<A;B>>(omega):       0.000000000000

@ Singlet linear response function in a.u.

@ A operator, symmetry, frequency:   XDIPLEN    1 -0.000000
@ B operator, symmetry, frequency:   YDIPLEN    1  0.000000

@ Value of linear response -<<A;B>>(omega):     198.812675650893

@ Singlet linear response function in a.u.

@ A operator, symmetry, frequency:   YDIPLEN    1 -0.000000
@ B operator, symmetry, frequency:   YDIPLEN    1  0.000000

@ Value of linear response -<<A;B>>(omega):     240.502419717742

@ Singlet linear response function in a.u.

@ A operator, symmetry, frequency:   ZDIPLEN    1 -0.000000
@ B operator, symmetry, frequency:   YDIPLEN    1  0.000000

@ Value of linear response -<<A;B>>(omega):       0.000000000000

@ Singlet linear response function in a.u.

@ A operator, symmetry, frequency:   XDIPLEN    1 -0.021500
@ B operator, symmetry, frequency:   YDIPLEN    1  0.021500

@ Value of linear response -<<A;B>>(omega):     204.537039266170

@ Singlet linear response function in a.u.

@ A operator, symmetry, frequency:   YDIPLEN    1 -0.021500
@ B operator, symmetry, frequency:   YDIPLEN    1  0.021500

@ Value of linear response -<<A;B>>(omega):     244.062688308812

@ Singlet linear response function in a.u.

@ A operator, symmetry, frequency:   ZDIPLEN    1 -0.021500
@ B operator, symmetry, frequency:   YDIPLEN    1  0.021500

@ Value of linear response -<<A;B>>(omega):       0.000000000000

@ Singlet linear response function in a.u.

@ A operator, symmetry, frequency:   XDIPLEN    1 -0.000000
@ B operator, symmetry, frequency:   ZDIPLEN    1  0.000000

@ Value of linear response -<<A;B>>(omega):      -0.000000000000

@ Singlet linear response function in a.u.

@ A operator, symmetry, frequency:   YDIPLEN    1 -0.000000
@ B operator, symmetry, frequency:   ZDIPLEN    1  0.000000

@ Value of linear response -<<A;B>>(omega):       0.000000000000

@ Singlet linear response function in a.u.

@ A operator, symmetry, frequency:   ZDIPLEN    1 -0.000000
@ B operator, symmetry, frequency:   ZDIPLEN    1  0.000000

@ Value of linear response -<<A;B>>(omega):      89.895373041612

@ Singlet linear response function in a.u.

@ A operator, symmetry, frequency:   XDIPLEN    1 -0.021500
@ B operator, symmetry, frequency:   ZDIPLEN    1  0.021500

@ Value of linear response -<<A;B>>(omega):      -0.000000000000

@ Singlet linear response function in a.u.

@ A operator, symmetry, frequency:   YDIPLEN    1 -0.021500
@ B operator, symmetry, frequency:   ZDIPLEN    1  0.021500

@ Value of linear response -<<A;B>>(omega):       0.000000000000

@ Singlet linear response function in a.u.

@ A operator, symmetry, frequency:   ZDIPLEN    1 -0.021500
@ B operator, symmetry, frequency:   ZDIPLEN    1  0.021500

@ Value of linear response -<<A;B>>(omega):      90.040190947511


  Results from quadratic response calculation
 --------------------------------------------

@ B-freq = 0.000000  C-freq = 0.000000     beta(X;X,X) =   5279.57928412
@ B-freq = 0.000000  C-freq = 0.000000     beta(Y;X,X) =   5501.07457123
@ B-freq = 0.000000  C-freq = 0.000000     beta(Z;X,X) =     -0.00000000
@ B-freq = 0.021500  C-freq = 0.000000     beta(X;X,X) =   5668.66468177
@ B-freq = 0.021500  C-freq = 0.000000     beta(Y;X,X) =   5810.27870708
@ B-freq = 0.021500  C-freq = 0.000000     beta(Z;X,X) =     -0.00000000
@ B-freq = 0.000000  C-freq = 0.000000     beta(X;Y,X) = beta(Y,X,X)
@ B-freq = 0.000000  C-freq = 0.000000     beta(X;Y,X) =   5501.07350248
@ B-freq = 0.000000  C-freq = 0.000000     beta(Y;Y,X) =   4854.93097752
@ B-freq = 0.000000  C-freq = 0.000000     beta(Z;Y,X) =     -0.00000000
@ B-freq = 0.021500  C-freq = 0.000000     beta(X;Y,X) =   5810.27757836
@ B-freq = 0.021500  C-freq = 0.000000     beta(Y;Y,X) =   5086.79698469
@ B-freq = 0.021500  C-freq = 0.000000     beta(Z;Y,X) =     -0.00000000
@ B-freq = 0.000000  C-freq = 0.000000     beta(X;Z,X) = beta(Z,X,X)
@ B-freq = 0.000000  C-freq = 0.000000     beta(Y;Z,X) = beta(Z,Y,X)
@ B-freq = 0.000000  C-freq = 0.000000     beta(X;Z,X) =     -0.00000000
@ B-freq = 0.000000  C-freq = 0.000000     beta(Y;Z,X) =     -0.00000000
@ B-freq = 0.000000  C-freq = 0.000000     beta(Z;Z,X) =    -32.97457839
@ B-freq = 0.021500  C-freq = 0.000000     beta(X;Z,X) =     -0.00000000
@ B-freq = 0.021500  C-freq = 0.000000     beta(Y;Z,X) =     -0.00000000
@ B-freq = 0.021500  C-freq = 0.000000     beta(Z;Z,X) =    -33.63643664
@ B-freq = 0.000000  C-freq = 0.021500     beta(X;X,X) = beta(X,X,X)
@ B-freq = 0.000000  C-freq = 0.021500     beta(Y;X,X) = beta(Y,X,X)
@ B-freq = 0.000000  C-freq = 0.021500     beta(Z;X,X) = beta(Z,X,X)
@ B-freq = 0.021500  C-freq = 0.021500     beta(X;X,X) =   6567.42806348
@ B-freq = 0.021500  C-freq = 0.021500     beta(Y;X,X) =   6440.13267764
@ B-freq = 0.021500  C-freq = 0.021500     beta(Z;X,X) =     -0.00000000
@ B-freq = 0.000000  C-freq = 0.021500     beta(X;Y,X) =   5875.82721542
@ B-freq = 0.000000  C-freq = 0.021500     beta(Y;Y,X) =   5130.04025198
@ B-freq = 0.000000  C-freq = 0.021500     beta(Z;Y,X) =     -0.00000000
@ B-freq = 0.021500  C-freq = 0.021500     beta(X;Y,X) =   6664.51834259
@ B-freq = 0.021500  C-freq = 0.021500     beta(Y;Y,X) =   5659.26191723
@ B-freq = 0.021500  C-freq = 0.021500     beta(Z;Y,X) =     -0.00000000
@ B-freq = 0.000000  C-freq = 0.021500     beta(X;Z,X) =     -0.00000000
@ B-freq = 0.000000  C-freq = 0.021500     beta(Y;Z,X) =     -0.00000000
@ B-freq = 0.000000  C-freq = 0.021500     beta(Z;Z,X) =    -33.89172550
@ B-freq = 0.021500  C-freq = 0.021500     beta(X;Z,X) =     -0.00000000
@ B-freq = 0.021500  C-freq = 0.021500     beta(Y;Z,X) =     -0.00000000
@ B-freq = 0.021500  C-freq = 0.021500     beta(Z;Z,X) =    -35.29495286
@ B-freq = 0.000000  C-freq = 0.000000     beta(X;X,Y) = beta(Y,X,X)
@ B-freq = 0.000000  C-freq = 0.000000     beta(Y;X,Y) = beta(Y,Y,X)
@ B-freq = 0.000000  C-freq = 0.000000     beta(Z;X,Y) = beta(Z,Y,X)
@ B-freq = 0.021500  C-freq = 0.000000     beta(X;X,Y) = beta(X,Y,X)
@ B-freq = 0.021500  C-freq = 0.000000     beta(Y;X,Y) = beta(Y,Y,X)
@ B-freq = 0.021500  C-freq = 0.000000     beta(Z;X,Y) = beta(Z,Y,X)
@ B-freq = 0.000000  C-freq = 0.000000     beta(X;Y,Y) = beta(Y,Y,X)
@ B-freq = 0.000000  C-freq = 0.000000     beta(X;Y,Y) =   4854.93035842
@ B-freq = 0.000000  C-freq = 0.000000     beta(Y;Y,Y) =   3872.59352775
@ B-freq = 0.000000  C-freq = 0.000000     beta(Z;Y,Y) =     -0.00000000
@ B-freq = 0.021500  C-freq = 0.000000     beta(X;Y,Y) =   5130.03959862
@ B-freq = 0.021500  C-freq = 0.000000     beta(Y;Y,Y) =   4068.08027347
@ B-freq = 0.021500  C-freq = 0.000000     beta(Z;Y,Y) =     -0.00000000
@ B-freq = 0.000000  C-freq = 0.000000     beta(X;Z,Y) = beta(Z,Y,X)
@ B-freq = 0.000000  C-freq = 0.000000     beta(Y;Z,Y) = beta(Z,Y,Y)
@ B-freq = 0.000000  C-freq = 0.000000     beta(X;Z,Y) =     -0.00000000
@ B-freq = 0.000000  C-freq = 0.000000     beta(Y;Z,Y) =     -0.00000000
@ B-freq = 0.000000  C-freq = 0.000000     beta(Z;Z,Y) =    -27.63956726
@ B-freq = 0.021500  C-freq = 0.000000     beta(X;Z,Y) =     -0.00000000
@ B-freq = 0.021500  C-freq = 0.000000     beta(Y;Z,Y) =     -0.00000000
@ B-freq = 0.021500  C-freq = 0.000000     beta(Z;Z,Y) =    -28.08323911
@ B-freq = 0.000000  C-freq = 0.021500     beta(X;X,Y) = beta(X,Y,X)
@ B-freq = 0.000000  C-freq = 0.021500     beta(Y;X,Y) = beta(Y,Y,X)
@ B-freq = 0.000000  C-freq = 0.021500     beta(Z;X,Y) = beta(Z,Y,X)
@ B-freq = 0.021500  C-freq = 0.021500     beta(X;X,Y) = beta(X,Y,X)
@ B-freq = 0.021500  C-freq = 0.021500     beta(Y;X,Y) = beta(Y,Y,X)
@ B-freq = 0.021500  C-freq = 0.021500     beta(Z;X,Y) = beta(Z,Y,X)
@ B-freq = 0.000000  C-freq = 0.021500     beta(X;Y,Y) = beta(X,Y,Y)
@ B-freq = 0.000000  C-freq = 0.021500     beta(Y;Y,Y) = beta(Y,Y,Y)
@ B-freq = 0.000000  C-freq = 0.021500     beta(Z;Y,Y) = beta(Z,Y,Y)
@ B-freq = 0.021500  C-freq = 0.021500     beta(X;Y,Y) =   5807.49908496
@ B-freq = 0.021500  C-freq = 0.021500     beta(Y;Y,Y) =   4510.95161676
@ B-freq = 0.021500  C-freq = 0.021500     beta(Z;Y,Y) =     -0.00000000
@ B-freq = 0.000000  C-freq = 0.021500     beta(X;Z,Y) =     -0.00000000
@ B-freq = 0.000000  C-freq = 0.021500     beta(Y;Z,Y) =     -0.00000000
@ B-freq = 0.000000  C-freq = 0.021500     beta(Z;Z,Y) =    -28.21787884
@ B-freq = 0.021500  C-freq = 0.021500     beta(X;Z,Y) =     -0.00000000
@ B-freq = 0.021500  C-freq = 0.021500     beta(Y;Z,Y) =     -0.00000000
@ B-freq = 0.021500  C-freq = 0.021500     beta(Z;Z,Y) =    -29.15305929
@ B-freq = 0.000000  C-freq = 0.000000     beta(X;X,Z) = beta(Z,X,X)
@ B-freq = 0.000000  C-freq = 0.000000     beta(Y;X,Z) = beta(Z,Y,X)
@ B-freq = 0.000000  C-freq = 0.000000     beta(Z;X,Z) = beta(Z,Z,X)
@ B-freq = 0.021500  C-freq = 0.000000     beta(X;X,Z) = beta(X,Z,X)
@ B-freq = 0.021500  C-freq = 0.000000     beta(Y;X,Z) = beta(Y,Z,X)
@ B-freq = 0.021500  C-freq = 0.000000     beta(Z;X,Z) = beta(Z,Z,X)
@ B-freq = 0.000000  C-freq = 0.000000     beta(X;Y,Z) = beta(Z,Y,X)
@ B-freq = 0.000000  C-freq = 0.000000     beta(Y;Y,Z) = beta(Z,Y,Y)
@ B-freq = 0.000000  C-freq = 0.000000     beta(Z;Y,Z) = beta(Z,Z,Y)
@ B-freq = 0.021500  C-freq = 0.000000     beta(X;Y,Z) = beta(X,Z,Y)
@ B-freq = 0.021500  C-freq = 0.000000     beta(Y;Y,Z) = beta(Y,Z,Y)
@ B-freq = 0.021500  C-freq = 0.000000     beta(Z;Y,Z) = beta(Z,Z,Y)
@ B-freq = 0.000000  C-freq = 0.000000     beta(X;Z,Z) = beta(Z,Z,X)
@ B-freq = 0.000000  C-freq = 0.000000     beta(Y;Z,Z) = beta(Z,Z,Y)
@ B-freq = 0.000000  C-freq = 0.000000     beta(X;Z,Z) =    -32.97457294
@ B-freq = 0.000000  C-freq = 0.000000     beta(Y;Z,Z) =    -27.63956025
@ B-freq = 0.000000  C-freq = 0.000000     beta(Z;Z,Z) =     -0.00000000
@ B-freq = 0.021500  C-freq = 0.000000     beta(X;Z,Z) =    -33.89171950
@ B-freq = 0.021500  C-freq = 0.000000     beta(Y;Z,Z) =    -28.21787146
@ B-freq = 0.021500  C-freq = 0.000000     beta(Z;Z,Z) =     -0.00000000
@ B-freq = 0.000000  C-freq = 0.021500     beta(X;X,Z) = beta(X,Z,X)
@ B-freq = 0.000000  C-freq = 0.021500     beta(Y;X,Z) = beta(Y,Z,X)
@ B-freq = 0.000000  C-freq = 0.021500     beta(Z;X,Z) = beta(Z,Z,X)
@ B-freq = 0.021500  C-freq = 0.021500     beta(X;X,Z) = beta(X,Z,X)
@ B-freq = 0.021500  C-freq = 0.021500     beta(Y;X,Z) = beta(Y,Z,X)
@ B-freq = 0.021500  C-freq = 0.021500     beta(Z;X,Z) = beta(Z,Z,X)
@ B-freq = 0.000000  C-freq = 0.021500     beta(X;Y,Z) = beta(X,Z,Y)
@ B-freq = 0.000000  C-freq = 0.021500     beta(Y;Y,Z) = beta(Y,Z,Y)
@ B-freq = 0.000000  C-freq = 0.021500     beta(Z;Y,Z) = beta(Z,Z,Y)
@ B-freq = 0.021500  C-freq = 0.021500     beta(X;Y,Z) = beta(X,Z,Y)
@ B-freq = 0.021500  C-freq = 0.021500     beta(Y;Y,Z) = beta(Y,Z,Y)
@ B-freq = 0.021500  C-freq = 0.021500     beta(Z;Y,Z) = beta(Z,Z,Y)
@ B-freq = 0.000000  C-freq = 0.021500     beta(X;Z,Z) = beta(X,Z,Z)
@ B-freq = 0.000000  C-freq = 0.021500     beta(Y;Z,Z) = beta(Y,Z,Z)
@ B-freq = 0.000000  C-freq = 0.021500     beta(Z;Z,Z) = beta(Z,Z,Z)
@ B-freq = 0.021500  C-freq = 0.021500     beta(X;Z,Z) =    -36.20869352
@ B-freq = 0.021500  C-freq = 0.021500     beta(Y;Z,Z) =    -29.64018224
@ B-freq = 0.021500  C-freq = 0.021500     beta(Z;Z,Z) =     -0.00000000

  Total CPU  time used in RESPONSE:  24 hours 44 minutes 32 seconds
  Total wall time used in RESPONSE:  24 hours 54 minutes 27 seconds


                   .-------------------------------------------.
                   | End of Dynamic Property Section (RESPONS) |
                   `-------------------------------------------'

  Total CPU  time used in DALTON:  31 hours 14 minutes 30 seconds
  Total wall time used in DALTON:  31 hours 26 minutes 55 seconds

 
     Date and time (Linux)  : Fri May 16 11:21:36 2025
     Host name              : xm045                                   
