

     ************************************************************************
     *************** Dalton - An Electronic Structure Program ***************
     ************************************************************************

    This is output from DALTON release Dalton2020.0 (2020)
         ( Web site: http://daltonprogram.org )

   ----------------------------------------------------------------------------

    NOTE:
     
    Dalton is an experimental code for the evaluation of molecular
    properties using (MC)SCF, DFT, CI, and CC wave functions.
    The authors accept no responsibility for the performance of
    the code or for the correctness of the results.
     
    The code (in whole or part) is provided under a licence and
    is not to be reproduced for further distribution without
    the written permission of the authors or their representatives.
     
    See the home page "http://daltonprogram.org" for further information.
     
    If results obtained with this code are published,
    the appropriate citations would be both of:
     
       K. Aidas, C. Angeli, K. L. Bak, V. Bakken, R. Bast,
       L. Boman, O. Christiansen, R. Cimiraglia, S. Coriani,
       P. Dahle, E. K. Dalskov, U. Ekstroem,
       T. Enevoldsen, J. J. Eriksen, P. Ettenhuber, B. Fernandez,
       L. Ferrighi, H. Fliegl, L. Frediani, K. Hald, A. Halkier,
       C. Haettig, H. Heiberg, T. Helgaker, A. C. Hennum,
       H. Hettema, E. Hjertenaes, S. Hoest, I.-M. Hoeyvik,
       M. F. Iozzi, B. Jansik, H. J. Aa. Jensen, D. Jonsson,
       P. Joergensen, J. Kauczor, S. Kirpekar,
       T. Kjaergaard, W. Klopper, S. Knecht, R. Kobayashi, H. Koch,
       J. Kongsted, A. Krapp, K. Kristensen, A. Ligabue,
       O. B. Lutnaes, J. I. Melo, K. V. Mikkelsen, R. H. Myhre,
       C. Neiss, C. B. Nielsen, P. Norman, J. Olsen,
       J. M. H. Olsen, A. Osted, M. J. Packer, F. Pawlowski,
       T. B. Pedersen, P. F. Provasi, S. Reine, Z. Rinkevicius,
       T. A. Ruden, K. Ruud, V. Rybkin, P. Salek, C. C. M. Samson,
       A. Sanchez de Meras, T. Saue, S. P. A. Sauer,
       B. Schimmelpfennig, K. Sneskov, A. H. Steindal,
       K. O. Sylvester-Hvid, P. R. Taylor, A. M. Teale,
       E. I. Tellgren, D. P. Tew, A. J. Thorvaldsen, L. Thoegersen,
       O. Vahtras, M. A. Watson, D. J. D. Wilson, M. Ziolkowski
       and H. Agren,
       "The Dalton quantum chemistry program system",
       WIREs Comput. Mol. Sci. 2014, 4:269–284 (doi: 10.1002/wcms.1172)
     
    and
     
       Dalton, a molecular electronic structure program,
       Release Dalton2020.0 (2020), see http://daltonprogram.org
   ----------------------------------------------------------------------------

    Authors in alphabetical order (Major contribution(s) in parenthesis):

  Kestutis Aidas,           Vilnius University,           Lithuania   (QM/MM)
  Celestino Angeli,         University of Ferrara,        Italy       (NEVPT2)
  Keld L. Bak,              UNI-C,                        Denmark     (AOSOPPA, non-adiabatic coupling, magnetic properties)
  Vebjoern Bakken,          University of Oslo,           Norway      (DALTON; geometry optimizer, symmetry detection)
  Radovan Bast,             UiT The Arctic U. of Norway,  Norway      (DALTON installation and execution frameworks)
  Pablo Baudin,             University of Valencia,       Spain       (Cholesky excitation energies)
  Linus Boman,              NTNU,                         Norway      (Cholesky decomposition and subsystems)
  Bruno N. Cabral Tenorio,  Technical Univ. of Denmark,   Denmark     (Lanczos-based CC methods)
  Ove Christiansen,         Aarhus University,            Denmark     (CC module)
  Renzo Cimiraglia,         University of Ferrara,        Italy       (NEVPT2)
  Sonia Coriani,            Technical Univ. of Denmark,   Denmark     (CC and RESPONS modules)
  Janusz Cukras,            University of Warsaw,         Poland      (MChD in RESPONS)
  Paal Dahle,               University of Oslo,           Norway      (Parallelization)
  Erik K. Dalskov,          UNI-C,                        Denmark     (SOPPA)
  Thomas Enevoldsen,        Univ. of Southern Denmark,    Denmark     (SOPPA)
  Janus J. Eriksen,         Aarhus University,            Denmark     (Polarizable embedding, TDA)
  Rasmus Faber,             Technical Univ. of Denmark,   Denmark     (Vib.avg. NMR w. SOPPA, parallel AO-SOPPA, CVS-CC and EOMCC)
  Tobias Fahleson,          KTH Stockholm,                Sweden      (Damped cubic response)
  Berta Fernandez,          U. of Santiago de Compostela, Spain       (Doublet spin, ESR in RESPONS)
  Lara Ferrighi,            Aarhus University,            Denmark     (PCM Cubic response)
  Heike Fliegl,             University of Oslo,           Norway      (CCSD(R12))
  Luca Frediani,            UiT The Arctic U. of Norway,  Norway      (PCM)
  Emmanuel Fromager,        Univ. Strasbourg,             France      (MC-srDFT)
  Bin Gao,                  UiT The Arctic U. of Norway,  Norway      (Gen1Int library)
  Andre S. P. Gomes,        CNRS/Universite de Lille,     France      (Frozen density embedding)
  Christof Haettig,         Ruhr-University Bochum,       Germany     (CC module)
  Kasper Hald,              Aarhus University,            Denmark     (CC module)
  Asger Halkier,            Aarhus University,            Denmark     (CC module)
  Frederik Beyer Hansen,    University of Copenhagen,     Denmark     (Parallel AO-SOPPA)
  Erik D. Hedegaard,        Univ. of Southern Denmark,    Denmark     (Polarizable embedding, QM/MM, and MC-srDFT)
  Hanne Heiberg,            University of Oslo,           Norway      (Geometry analysis, selected one-electron integrals)
  Trygve Helgaker,          University of Oslo,           Norway      (DALTON; ABACUS, ERI, DFT modules, London, and much more)
  Alf Christian Hennum,     University of Oslo,           Norway      (Parity violation)
  Hinne Hettema,            University of Auckland,       New Zealand (Quadratic response in RESPONS; SIRIUS supersymmetry)
  Eirik Hjertenaes,         NTNU,                         Norway      (Cholesky decomposition)
  Pi A. B. Haase,           University of Copenhagen,     Denmark     (Triplet AO-SOPPA)
  Maria Francesca Iozzi,    University of Oslo,           Norway      (RPA)
  Christoph Jacob           TU Braunschweig               Germany     (Frozen density embedding)
  Brano Jansik              Technical Univ. of Ostrava    Czech Rep.  (DFT cubic response)
  Hans Joergen Aa. Jensen,  Univ. of Southern Denmark,    Denmark     (DALTON; SIRIUS, RESPONS, ABACUS, MC-srDFT, and much more)
  Dan Jonsson,              UiT The Arctic U. of Norway,  Norway      (Cubic response in RESPONS module)
  Poul Joergensen,          Aarhus University,            Denmark     (RESPONS, ABACUS, and CC modules)
  Maciej Kaminski,          University of Warsaw,         Poland      (CPPh in RESPONS)
  Joanna Kauczor,           Linkoeping University,        Sweden      (Complex polarization propagator (CPP) module)
  Sheela Kirpekar,          Univ. of Southern Denmark,    Denmark     (Mass-velocity & Darwin integrals)
  Erik Kjellgren,           Univ. of Southern Denmark,    Denmark     (MC-srDFT)
  Wim Klopper,              KIT Karlsruhe,                Germany     (R12 code in CC, SIRIUS, and ABACUS modules)
  Stefan Knecht,            ETH Zurich,                   Switzerland (Parallel CI and MCSCF, MC-srDFT)
  Rika Kobayashi,           Australian National Univ.,    Australia   (DIIS in CC, London in MCSCF)
  Henrik Koch,              NTNU,                         Norway      (CC module, Cholesky decomposition)
  Jacob Kongsted,           Univ. of Southern Denmark,    Denmark     (Polarizable embedding, polarizable density embedding, QM/MM)
  Andrea Ligabue,           University of Modena,         Italy       (CTOCD, AOSOPPA)
  Nanna H. List             Univ. of Southern Denmark,    Denmark     (Polarizable embedding)
  Ola B. Lutnaes,           University of Oslo,           Norway      (DFT Hessian)
  Juan I. Melo,             University of Buenos Aires,   Argentina   (LRESC, Relativistic Effects on NMR Shieldings)
  Kurt V. Mikkelsen,        University of Copenhagen,     Denmark     (MC-SCRF and QM/MM)
  Rolf H. Myhre,            NTNU,                         Norway      (Subsystems and CC3)
  Christian Neiss,          Univ. Erlangen-Nuernberg,     Germany     (CCSD(R12))
  Christian B. Nielsen,     University of Copenhagen,     Denmark     (QM/MM)
  Patrick Norman,           KTH Stockholm,                Sweden      (Cubic response and complex frequency response in RESPONS)
  Jeppe Olsen,              Aarhus University,            Denmark     (SIRIUS CI/density modules)
  Jogvan Magnus H. Olsen,   Aarhus University,            Denmark     (Polarizable embedding and polarizable density embedding)
  Anders Osted,             Copenhagen University,        Denmark     (QM/MM)
  Martin J. Packer,         University of Sheffield,      UK          (SOPPA)
  Filip Pawlowski,          Kazimierz Wielki University,  Poland      (CC3)
  Morten N. Pedersen,       Univ. of Southern Denmark,    Denmark     (Polarizable embedding)
  Thomas B. Pedersen,       University of Oslo,           Norway      (Cholesky decomposition)
  Patricio F. Provasi,      University of Northeastern,   Argentina   (Analysis of coupling constants in localized orbitals)
  Peter Reinholdt,          Univ. of Southern Denmark,    Denmark     (Polarizable embedding and polarizable density embedding)
  Zilvinas Rinkevicius,     KTH Stockholm,                Sweden      (open-shell DFT, ESR)
  Elias Rudberg,            KTH Stockholm,                Sweden      (DFT grid and basis info)
  Torgeir A. Ruden,         University of Oslo,           Norway      (Numerical derivatives in ABACUS)
  Kenneth Ruud,             UiT The Arctic U. of Norway,  Norway      (DALTON; ABACUS magnetic properties and much more)
  Pawel Salek,              KTH Stockholm,                Sweden      (DALTON; DFT code)
  Claire C. M. Samson       University of Karlsruhe       Germany     (Boys localization, r12 integrals in ERI)
  Alfredo Sanchez de Meras, University of Valencia,       Spain       (CC module, Cholesky decomposition)
  Trond Saue,               Paul Sabatier University,     France      (direct Fock matrix construction)
  Stephan P. A. Sauer,      University of Copenhagen,     Denmark     (SOPPA(CCSD), SOPPA prop., AOSOPPA, vibrational g-factors)
  Bernd Schimmelpfennig,    Forschungszentrum Karlsruhe,  Germany     (AMFI module)
  Anna K. Schnack-Petersen, University of Copenhagen,     Denmark     (RPA(D) and HRPA(D) properties in AOSOPPA)
  Kristian Sneskov,         Aarhus University,            Denmark     (Polarizable embedding, QM/MM)
  Arnfinn H. Steindal,      UiT The Arctic U. of Norway,  Norway      (parallel QM/MM, polarizable embedding)
  Casper Steinmann,         Aalborg University,           Denmark     (QFIT, polarizable embedding)
  K. O. Sylvester-Hvid,     University of Copenhagen,     Denmark     (MC-SCRF)
  Peter R. Taylor,          VLSCI/Univ. of Melbourne,     Australia   (Symmetry handling ABACUS, integral transformation)
  Andrew M. Teale,          University of Nottingham,     England     (DFT-AC, DFT-D)
  David P. Tew,             University of Bristol,        England     (CCSD(R12))
  Julien Toulouse,          Sorbonne Univ.,               France      (MC-srDFT)
  Olav Vahtras,             KTH Stockholm,                Sweden      (Triplet response, spin-orbit, ESR, TDDFT, open-shell DFT)
  Lucas Visscher,           Vrije Universiteit Amsterdam, Netherlands (Frozen density embedding)
  David J. Wilson,          La Trobe University,          Australia   (DFT Hessian and DFT magnetizabilities)
  Hans Agren,               KTH Stockholm,                Sweden      (SIRIUS module, RESPONS, MC-SCRF solvation)
 --------------------------------------------------------------------------------

     Date and time (Linux)  : Mon May  5 20:30:08 2025
     Host name              : xm048                                   

 * Work memory size             :  1310720000 =  9.766 gigabytes.

 * Directories for basis set searches:
   1) /gpfs/projects/rjh/adrian/summer2025/beta_projects/raw_data/NLO/dalton/hf/n2/dipole
   2) /gpfs/projects/rjh/adrian/dalton/build/basis


Compilation information
-----------------------

 Who compiled             | ahurtado
 Host                     | milan2
 System                   | Linux-5.14.0-427.42.1.el9_4.x86_64
 CMake generator          | Unix Makefiles
 Processor                | x86_64
 64-bit integers          | OFF
 MPI                      | ON
 Fortran compiler         | /gpfs/software/openmpi/milan/gcc13.2/4.1.6/bin/mpi
                          | f90
 Fortran compiler version | GNU Fortran (GCC) 13.2.0
 C compiler               | /gpfs/software/openmpi/milan/gcc13.2/4.1.6/bin/mpi
                          | cc
 C compiler version       | gcc (GCC) 13.2.0
 C++ compiler             | /gpfs/software/openmpi/milan/gcc13.2/4.1.6/bin/mpi
                          | cxx
 C++ compiler version     | unknown
 BLAS                     | /gpfs/software/intel/oneAPI/2024_2/mkl/2024.2/lib/
                          | intel64/libmkl_gf_lp64.so;/gpfs/software/intel/one
                          | API/2024_2/mkl/2024.2/lib/intel64/libmkl_sequentia
                          | l.so;/gpfs/software/intel/oneAPI/2024_2/mkl/2024.2
                          | /lib/intel64/libmkl_core.so;/usr/lib64/libpthread.
                          | a;/usr/lib64/libm.so
 LAPACK                   | /gpfs/software/intel/oneAPI/2024_2/mkl/2024.2/lib/
                          | intel64/libmkl_lapack95_lp64.a;/gpfs/software/inte
                          | l/oneAPI/2024_2/mkl/2024.2/lib/intel64/libmkl_gf_l
                          | p64.so
 Static linking           | OFF
 Last Git revision        | 66052b3af5ea7225e31178bf9a8b031913c72190
 Git branch               | (HEAD detached at Dalton2020.0)
 Configuration time       | 2025-04-10 16:02:31.569498

 * MPI parallel run using 96 processes.


   Content of the .dal input file
 ----------------------------------

**DALTON INPUT
.RUN RESPONSE
.DIRECT
**WAVE FUNCTIONS
.HF
**PROPERTIES
**RESPONSE
*QUADRA
.DIPLEN
.FREQUENCIES
3
0.0 0.022625375 0.04525075
**END OF DALTON INPUT


   Content of the .mol file
 ----------------------------

BASIS
aug-cc-pVQZ
blah
blah
Atomtype=4 Angstrom Charge=0 Nosymmetry
Charge=6 Atoms=4
C_a -0.9513250019573374 2.472788001948107 0.0
C_b -1.1314199984836448 1.1161090020327755 0.0
C_c 0.0 0.2238209994040954 0.0
C_d -0.0798650015824042 -1.1280989987284662 0.0
Charge=7 Atoms=2
N_a -1.934118997859812 3.4171439993377533 0.0
N_b 1.1226509976338603 -1.94442499920976 0.0
Charge=8 Atoms=2
O_a 2.226269999299899 -1.3908260009705062 0.0
O_b 0.9410479995185342 -3.168973000544804 0.0
Charge=1 Atoms=6
H_a 0.06842399978392295 2.877394997480202 0.0
H_b -2.1457999999960804 0.6981740011031261 0.0
H_c -2.9099809998487105 3.151718997670657 0.0
H_d -1.7094249989359582 4.400491001300694 0.0
H_e 1.0088069981771246 0.6562650022629831 0.0
H_f -0.9946379978975137 -1.7224080019592434 0.0


       *******************************************************************
       *********** Output from DALTON general input processing ***********
       *******************************************************************

 --------------------------------------------------------------------------------
   Overall default print level:    0
   Print level for DALTON.STAT:    1

    Parallel calculation using MPI
    AO-direct calculation (in sections where implemented)
    HERMIT 1- and 2-electron integral sections will be executed
    "Old" integral transformation used (limited to max 255 basis functions)
    Wave function sections will be executed (SIRIUS module)
    Dynamic molecular response properties section will be executed (RESPONSE module)
 --------------------------------------------------------------------------------


   ****************************************************************************
   *************** Output of molecule and basis set information ***************
   ****************************************************************************


    The two title cards from your ".mol" input:
    ------------------------------------------------------------------------
 1: blah                                                                    
 2: blah                                                                    
    ------------------------------------------------------------------------

  Coordinates are entered in Angstrom and converted to atomic units.
          - Conversion factor : 1 bohr = 0.52917721 A

  Atomic type no.    1
  --------------------
  Nuclear charge:   6.00000
  Number of symmetry independent centers:    4
  Number of basis sets to read;    2
  Basis set file used for this atomic type with Z =   6 :
     "/gpfs/projects/rjh/adrian/dalton/build/basis/aug-cc-pVQZ"

  Atomic type no.    2
  --------------------
  Nuclear charge:   7.00000
  Number of symmetry independent centers:    2
  Number of basis sets to read;    2
  Basis set file used for this atomic type with Z =   7 :
     "/gpfs/projects/rjh/adrian/dalton/build/basis/aug-cc-pVQZ"

  Atomic type no.    3
  --------------------
  Nuclear charge:   8.00000
  Number of symmetry independent centers:    2
  Number of basis sets to read;    2
  Basis set file used for this atomic type with Z =   8 :
     "/gpfs/projects/rjh/adrian/dalton/build/basis/aug-cc-pVQZ"

  Atomic type no.    4
  --------------------
  Nuclear charge:   1.00000
  Number of symmetry independent centers:    6
  Number of basis sets to read;    2
  Basis set file used for this atomic type with Z =   1 :
     "/gpfs/projects/rjh/adrian/dalton/build/basis/aug-cc-pVQZ"


                         SYMGRP: Point group information
                         -------------------------------

@    Point group: C1 


                                 Isotopic Masses
                                 ---------------

                           C_a        12.000000
                           C_b        12.000000
                           C_c        12.000000
                           C_d        12.000000
                           N_a        14.003074
                           N_b        14.003074
                           O_a        15.994915
                           O_b        15.994915
                           H_a         1.007825
                           H_b         1.007825
                           H_c         1.007825
                           H_d         1.007825
                           H_e         1.007825
                           H_f         1.007825

                       Total mass:   114.042928 amu
                       Natural abundance:  94.425 %

 Center-of-mass coordinates (a.u.):    0.109558   -0.164961    0.000000
 Center-of-mass coordinates (Angs):    0.057976   -0.087294    0.000000


  Atoms and basis sets
  --------------------

  Number of atom types :    4
  Total number of atoms:   14

  Basis set used is "aug-cc-pVQZ" from the basis set library.

  label    atoms   charge   prim   cont     basis
  ----------------------------------------------------------------------
  C_          4    6.0000    93    80      [13s7p4d3f2g|6s5p4d3f2g]                           
  N_          2    7.0000    93    80      [13s7p4d3f2g|6s5p4d3f2g]                           
  O_          2    8.0000    93    80      [13s7p4d3f2g|6s5p4d3f2g]                           
  H_          6    1.0000    48    46      [7s4p3d2f|5s4p3d2f]                                
  ----------------------------------------------------------------------
  total:     14   60.0000  1032   916
  ----------------------------------------------------------------------
  Spherical harmonic basis used.

  Threshold for neglecting AO integrals:  1.00D-12


   Interatomic separations (in Angstrom):
   --------------------------------------

            C_a         C_b         C_c         C_d         N_a         N_b   
            ------      ------      ------      ------      ------      ------
 C_a   :    0.000000
 C_b   :    1.368580    0.000000
 C_c   :    2.441899    1.440933    0.000000
 C_d   :    3.704839    2.478354    1.354277    0.000000
 N_a   :    1.362972    2.437024    3.733380    4.908920    0.000000
 N_b   :    4.879872    3.801014    2.441646    1.453421    6.171731    0.000000
 O_a   :    5.002462    4.190323    2.750157    2.321052    6.358098    1.234685
 O_b   :    5.950676    4.759942    3.520884    2.281979    7.186343    1.237941
 H_a   :    1.097085    2.131139    2.654456    4.008238    2.074008    4.935721
 H_b   :    2.139165    1.097104    2.197605    2.757419    2.727198    4.203106
 H_c   :    2.072988    2.703144    4.128023    5.130926    1.011315    6.498677
 H_d   :    2.071414    3.334855    4.512949    5.763746    1.008692    6.948281
 H_e   :    2.672428    2.189070    1.097588    2.090254    4.035253    2.603181
 H_f   :    4.195420    2.841811    2.185661    1.090877    5.224712    2.128897

            O_a         O_b         H_a         H_b         H_c         H_d   
            ------      ------      ------      ------      ------      ------
 O_a   :    0.000000
 O_b   :    2.193992    0.000000
 H_a   :    4.782678    6.109013    0.000000
 H_b   :    4.845505    4.948076    3.106733    0.000000
 H_c   :    6.856806    7.401457    2.991012    2.569797    0.000000
 H_d   :    7.002075    8.020087    2.341061    3.727945    1.732272    0.000000
 H_e   :    2.381764    3.825838    2.411999    3.154885    4.645879    4.626879
 H_f   :    3.237931    2.416491    4.721047    2.680371    5.236951    6.164480

            H_e         H_f   
            ------      ------
 H_e   :    0.000000
 H_f   :    3.109964    0.000000


  Max    interatomic separation is    8.0201 Angstrom (   15.1558 Bohr)
  between atoms   12 and    8, "H_d   " and "O_b   ".

  Min HX interatomic separation is    1.0087 Angstrom (    1.9062 Bohr)

  Min YX interatomic separation is    1.2347 Angstrom (    2.3332 Bohr)


  Bond distances (Angstrom):
  --------------------------

                  atom 1     atom 2       distance
                  ------     ------       --------
  bond distance:  C_b        C_a          1.368580
  bond distance:  C_c        C_b          1.440933
  bond distance:  C_d        C_c          1.354277
  bond distance:  N_a        C_a          1.362972
  bond distance:  N_b        C_d          1.453421
  bond distance:  O_a        N_b          1.234685
  bond distance:  O_b        N_b          1.237941
  bond distance:  H_a        C_a          1.097085
  bond distance:  H_b        C_b          1.097104
  bond distance:  H_c        N_a          1.011315
  bond distance:  H_d        N_a          1.008692
  bond distance:  H_e        C_c          1.097588
  bond distance:  H_f        C_d          1.090877


  Bond angles (degrees):
  ----------------------

                  atom 1     atom 2     atom 3         angle
                  ------     ------     ------         -----
  bond angle:     C_b        C_a        N_a          126.296
  bond angle:     C_b        C_a        H_a          119.203
  bond angle:     N_a        C_a        H_a          114.501
  bond angle:     C_a        C_b        C_c          120.699
  bond angle:     C_a        C_b        H_b          119.954
  bond angle:     C_c        C_b        H_b          119.347
  bond angle:     C_b        C_c        C_d          124.880
  bond angle:     C_b        C_c        H_e          118.536
  bond angle:     C_d        C_c        H_e          116.584
  bond angle:     C_c        C_d        N_b          120.790
  bond angle:     C_c        C_d        H_f          126.392
  bond angle:     N_b        C_d        H_f          112.818
  bond angle:     C_a        N_a        H_c          120.927
  bond angle:     C_a        N_a        H_d          120.986
  bond angle:     H_c        N_a        H_d          118.087
  bond angle:     C_d        N_b        O_a          119.190
  bond angle:     C_d        N_b        O_b          115.735
  bond angle:     O_a        N_b        O_b          125.075




 Principal moments of inertia (u*A**2) and principal axes
 --------------------------------------------------------

   IA      53.169315         -0.485707    0.874122    0.000000
   IB     707.500907          0.874122    0.485707    0.000000
   IC     760.670221          0.000000    0.000000    1.000000


 Rotational constants
 --------------------

@    The molecule is planar.

               A                   B                   C

           9505.0879            714.3157            664.3865 MHz
            0.317056            0.023827            0.022162 cm-1


@  Nuclear repulsion energy :  334.724575361275 Hartree


                     .---------------------------------------.
                     | Starting in Integral Section (HERMIT) |
                     `---------------------------------------'



 ***************************************************************************************
 ****************** Output from **INTEGRALS input processing (HERMIT) ******************
 ***************************************************************************************


 - Using defaults, no **INTEGRALS input found

 Default print level:        1

 Calculation of one-electron Hamiltonian integrals.

 Center of mass  (bohr):      0.109558073324     -0.164960834262      0.000000000000
 Operator center (bohr):      0.000000000000      0.000000000000      0.000000000000
 Gauge origin    (bohr):      0.000000000000      0.000000000000      0.000000000000
 Dipole origin   (bohr):      0.000000000000      0.000000000000      0.000000000000


     ************************************************************************
     ************************** Output from HERINT **************************
     ************************************************************************



                      Nuclear contribution to dipole moments
                      --------------------------------------

                 au               Debye          C m (/(10**-30)

      x     -0.00000949        -0.00002412        -0.00008046
      y     -0.00001698        -0.00004316        -0.00014396
      z      0.00000000         0.00000000         0.00000000


  Time used in ONEDRV     is       1.07 seconds
  Time used in HUCKEL     is       0.33 seconds
  Time used in OVERLAP    is       0.18 seconds
  Time used in POPOVLP    is       0.36 seconds
  Time used in R2         is       0.24 seconds
  Time used in R4         is       0.30 seconds
  Time used in DIPLEN     is       0.36 seconds
  Time used in QUADRUP    is       0.75 seconds
  Time used in KINENE     is       0.32 seconds
  Time used in GABGEN     is       5.38 seconds
  Total CPU  time used in HERMIT:   9.29 seconds
  Total wall time used in HERMIT:   9.56 seconds


                        .----------------------------------.
                        | End of Integral Section (HERMIT) |
                        `----------------------------------'



                   .--------------------------------------------.
                   | Starting in Wave Function Section (SIRIUS) |
                   `--------------------------------------------'



@ Primary orbitals are deleted during canonical orthonormalization
@   because of detected numerical linear dependence or too large coefficients.
@ Eigenvalue threshold for num. lin. dep. =  1.00D-06

@   1 MO components are deleted in symmetry    1
 Overlap eigenvalues of the deleted orbitals:
  7.89D-07

 Max MO coeff. of last deleted MO & limit:  4.52D+02  1.00D+03

WARNING: Orbitals have been deleted because of numerical
   linear dependence although not requested in input.

 *** Output from Huckel module :

     Using EWMO model:          T
     Using EHT  model:          F
     Number of Huckel orbitals each symmetry:   46

 EWMO - Energy Weighted Maximum Overlap - is a Huckel type method,
        which normally is better than Extended Huckel Theory.
 Reference: Linderberg and Ohrn, Propagators in Quantum Chemistry (Wiley, 1973)

 Huckel EWMO eigenvalues for symmetry :  1
          -20.684751     -20.683464     -15.677079     -15.675022     -11.358566
          -11.354330     -11.347452     -11.345627      -1.965416      -1.769414
           -1.564904      -1.441062      -1.240847      -1.090666      -0.954916
           -0.860417      -0.851561      -0.791724      -0.699974      -0.689880
           -0.682320      -0.610468      -0.585840      -0.546268      -0.542391
           -0.513372      -0.505950      -0.489927      -0.425523      -0.408863
           -0.331558      -0.248171      -0.229244      -0.205164      -0.202046
           -0.190287      -0.165166      -0.142442      -0.136167      -0.129559
           -0.124923      -0.124039      -0.102981      -0.097133      -0.088128
           -0.081995

 **********************************************************************
 *SIRIUS* a direct, restricted step, second order MCSCF program       *
 **********************************************************************

 
     Date and time (Linux)  : Mon May  5 20:30:56 2025
     Host name              : xm048                                   

 Title lines from ".mol" input file:
     blah                                                                    
     blah                                                                    

 Print level on unit LUPRI =   2 is   0
 Print level on unit LUW4  =   2 is   5

@    Restricted, closed shell Hartree-Fock calculation.

@    Time-dependent Hartree-Fock calculation (random phase approximation).
 Fock matrices are calculated directly and in parallel without use of integrals on disk.

 Initial molecular orbitals are obtained according to
 ".MOSTART EWMO  " input option

     Wave function specification
     ============================
@    Wave function type        --- HF ---
@    Number of closed shell electrons          60
@    Number of electrons in active shells       0
@    Total charge of the molecule               0

@    Spin multiplicity and 2 M_S                1         0
@    Total number of symmetries                 1 (point group: C1 )
@    Reference state symmetry                   1 (irrep name : A  )

     Orbital specifications
     ======================
@    Abelian symmetry species          All |    1
@                                          |  A  
                                       --- |  ---
@    Occupied SCF orbitals              30 |   30
@    Secondary orbitals                885 |  885
@    Total number of orbitals          915 |  915
@    Number of basis functions         916 |  916

     Optimization information
     ========================
@    Number of configurations                 1
@    Number of orbital rotations          26550
     ------------------------------------------
@    Total number of variables            26551

     Maximum number of Fock   iterations      0
     Maximum number of DIIS   iterations     60
     Maximum number of QC-SCF iterations     60
     Threshold for SCF convergence     1.00D-05

    INFORMATION: Switched to "new" integral transformation (from 1988 ;-) )
    because more than 255 basis functions.


 ***********************************************
 ***** DIIS acceleration of SCF iterations *****
 ***********************************************

 C1-DIIS algorithm; max error vectors =    8

 Iter      Total energy        Error norm    Delta(E)  DIIS dim.
 -----------------------------------------------------------------------------
   1  Screening settings (-IFTHRS, JTDIIS, DIFDEN, times)   -9    1    T  5.00D+01  5.04D+01
@  1    -411.794411293        5.69522D+00   -4.12D+02    1
      Virial theorem: -V/T =      2.002917
@    MULPOP   C_a     0.43; C_b    -0.41; C_c    -0.21; C_d    -0.09; N_a    -1.16; N_b     1.98; O_a    -1.65; O_b    -1.69; H_a     0.42; H_b     0.62; 
@             H_c     0.40; H_d     0.28; H_e     0.61; H_f     0.46; 
   1  Level shift: doubly occupied orbital energies shifted by -2.00D-01
 -----------------------------------------------------------------------------
   2  Screening settings (-IFTHRS, JTDIIS, DIFDEN, times)   -9    2    T  4.58D+01  4.62D+01
@  2    -413.222841787        2.90352D+00   -1.43D+00    2
      Virial theorem: -V/T =      2.002217
@    MULPOP   C_a    -0.07; C_b    -0.57; C_c    -0.47; C_d    -0.56; N_a    -0.93; N_b     0.08; O_a    -0.31; O_b    -0.19; H_a     0.54; H_b     0.53; 
@             H_c     0.45; H_d     0.38; H_e     0.53; H_f     0.59; 
   2  Level shift: doubly occupied orbital energies shifted by -2.00D-01
 -----------------------------------------------------------------------------
   3  Screening settings (-IFTHRS, JTDIIS, DIFDEN, times)   -9    3    T  4.50D+01  4.53D+01
@  3    -413.585276542        5.14234D-01   -3.62D-01    3
      Virial theorem: -V/T =      2.001162
@    MULPOP   C_a    -0.06; C_b    -0.51; C_c    -0.40; C_d    -0.36; N_a    -0.82; N_b     0.64; O_a    -0.59; O_b    -0.58; H_a     0.50; H_b     0.46; 
@             H_c     0.39; H_d     0.32; H_e     0.48; H_f     0.54; 
   3  Level shift: doubly occupied orbital energies shifted by -5.00D-02
 -----------------------------------------------------------------------------
   4  Screening settings (-IFTHRS, JTDIIS, DIFDEN, times)  -13    4    F  4.79D+01  4.83D+01
@  4    -413.607656670        1.96620D-01   -2.24D-02    4
      Virial theorem: -V/T =      2.002833
@    MULPOP   C_a     0.01; C_b    -0.46; C_c    -0.33; C_d    -0.38; N_a    -0.74; N_b     0.62; O_a    -0.61; O_b    -0.56; H_a     0.45; H_b     0.41; 
@             H_c     0.34; H_d     0.27; H_e     0.46; H_f     0.54; 
   4  Level shift: doubly occupied orbital energies shifted by -2.50D-02
 -----------------------------------------------------------------------------
   5  Screening settings (-IFTHRS, JTDIIS, DIFDEN, times)  -13    5    T  4.74D+01  4.78D+01
@  5    -413.611889256        7.84073D-02   -4.23D-03    5
      Virial theorem: -V/T =      2.002280
@    MULPOP   C_a    -0.02; C_b    -0.48; C_c    -0.37; C_d    -0.37; N_a    -0.74; N_b     0.65; O_a    -0.60; O_b    -0.58; H_a     0.47; H_b     0.41; 
@             H_c     0.34; H_d     0.28; H_e     0.47; H_f     0.54; 
   5  Level shift: doubly occupied orbital energies shifted by -1.25D-02
 -----------------------------------------------------------------------------
   6  Screening settings (-IFTHRS, JTDIIS, DIFDEN, times)  -13    6    T  4.72D+01  4.75D+01
@  6    -413.612796700        3.02930D-02   -9.07D-04    6
      Virial theorem: -V/T =      2.002151
@    MULPOP   C_a    -0.02; C_b    -0.48; C_c    -0.37; C_d    -0.38; N_a    -0.74; N_b     0.64; O_a    -0.60; O_b    -0.57; H_a     0.47; H_b     0.41; 
@             H_c     0.34; H_d     0.28; H_e     0.47; H_f     0.55; 
 -----------------------------------------------------------------------------
   7  Screening settings (-IFTHRS, JTDIIS, DIFDEN, times)  -13    7    T  4.66D+01  4.69D+01
@  7    -413.612983443        1.51826D-02   -1.87D-04    7
      Virial theorem: -V/T =      2.002211
@    MULPOP   C_a    -0.02; C_b    -0.48; C_c    -0.37; C_d    -0.37; N_a    -0.75; N_b     0.64; O_a    -0.60; O_b    -0.58; H_a     0.47; H_b     0.41; 
@             H_c     0.34; H_d     0.28; H_e     0.47; H_f     0.55; 
 -----------------------------------------------------------------------------
   8  Screening settings (-IFTHRS, JTDIIS, DIFDEN, times)  -13    8    T  4.68D+01  4.72D+01
@  8    -413.613017641        6.10665D-03   -3.42D-05    8
      Virial theorem: -V/T =      2.002197
@    MULPOP   C_a    -0.02; C_b    -0.48; C_c    -0.37; C_d    -0.37; N_a    -0.75; N_b     0.64; O_a    -0.60; O_b    -0.57; H_a     0.47; H_b     0.41; 
@             H_c     0.34; H_d     0.28; H_e     0.47; H_f     0.55; 
 -----------------------------------------------------------------------------
   9  Screening settings (-IFTHRS, JTDIIS, DIFDEN, times)  -13    9    T  4.66D+01  4.70D+01
@  9    -413.613022985        1.92866D-03   -5.34D-06    8
      Virial theorem: -V/T =      2.002186
@    MULPOP   C_a    -0.02; C_b    -0.48; C_c    -0.37; C_d    -0.37; N_a    -0.75; N_b     0.64; O_a    -0.60; O_b    -0.57; H_a     0.47; H_b     0.41; 
@             H_c     0.34; H_d     0.28; H_e     0.47; H_f     0.55; 
 -----------------------------------------------------------------------------
  10  Screening settings (-IFTHRS, JTDIIS, DIFDEN, times)  -13   10    T  4.65D+01  4.66D+01
@ 10    -413.613023729        8.54231D-04   -7.44D-07    8
      Virial theorem: -V/T =      2.002188
@    MULPOP   C_a    -0.02; C_b    -0.48; C_c    -0.37; C_d    -0.37; N_a    -0.75; N_b     0.64; O_a    -0.60; O_b    -0.57; H_a     0.47; H_b     0.41; 
@             H_c     0.34; H_d     0.28; H_e     0.47; H_f     0.55; 
 -----------------------------------------------------------------------------
  11  Screening settings (-IFTHRS, JTDIIS, DIFDEN, times)  -13   11    T  4.61D+01  4.63D+01
@ 11    -413.613023877        4.44583D-04   -1.48D-07    8
      Virial theorem: -V/T =      2.002188
@    MULPOP   C_a    -0.02; C_b    -0.48; C_c    -0.37; C_d    -0.37; N_a    -0.75; N_b     0.64; O_a    -0.60; O_b    -0.57; H_a     0.47; H_b     0.41; 
@             H_c     0.34; H_d     0.28; H_e     0.47; H_f     0.55; 
 -----------------------------------------------------------------------------
  12  Screening settings (-IFTHRS, JTDIIS, DIFDEN, times)  -13   12    T  4.59D+01  4.60D+01
@ 12    -413.613023921        1.73008D-04   -4.40D-08    8
      Virial theorem: -V/T =      2.002188
@    MULPOP   C_a    -0.02; C_b    -0.48; C_c    -0.37; C_d    -0.37; N_a    -0.75; N_b     0.64; O_a    -0.60; O_b    -0.57; H_a     0.47; H_b     0.41; 
@             H_c     0.34; H_d     0.28; H_e     0.47; H_f     0.55; 
 -----------------------------------------------------------------------------
  13  Screening settings (-IFTHRS, JTDIIS, DIFDEN, times)  -13   13    T  4.52D+01  4.54D+01
@ 13    -413.613023927        7.82272D-05   -6.11D-09    8
      Virial theorem: -V/T =      2.002188
@    MULPOP   C_a    -0.02; C_b    -0.48; C_c    -0.37; C_d    -0.37; N_a    -0.75; N_b     0.64; O_a    -0.60; O_b    -0.57; H_a     0.47; H_b     0.41; 
@             H_c     0.34; H_d     0.28; H_e     0.47; H_f     0.55; 
 -----------------------------------------------------------------------------
  14  Screening settings (-IFTHRS, JTDIIS, DIFDEN, times)  -13   14    T  4.47D+01  4.49D+01
@ 14    -413.613023928        2.62633D-05   -9.66D-10    8
      Virial theorem: -V/T =      2.002188
@    MULPOP   C_a    -0.02; C_b    -0.48; C_c    -0.37; C_d    -0.37; N_a    -0.75; N_b     0.64; O_a    -0.60; O_b    -0.57; H_a     0.47; H_b     0.41; 
@             H_c     0.34; H_d     0.28; H_e     0.47; H_f     0.55; 
 -----------------------------------------------------------------------------
  15  Screening settings (-IFTHRS, JTDIIS, DIFDEN, times)  -13   15    T  4.46D+01  4.48D+01
@ 15    -413.613023928        1.09196D-05   -1.24D-10    8
      Virial theorem: -V/T =      2.002188
@    MULPOP   C_a    -0.02; C_b    -0.48; C_c    -0.37; C_d    -0.37; N_a    -0.75; N_b     0.64; O_a    -0.60; O_b    -0.57; H_a     0.47; H_b     0.41; 
@             H_c     0.34; H_d     0.28; H_e     0.47; H_f     0.55; 
 -----------------------------------------------------------------------------
  16  Screening settings (-IFTHRS, JTDIIS, DIFDEN, times)  -13   16    T  4.47D+01  4.48D+01
@ 16    -413.613023928        6.11716D-06   -2.48D-11    8

@ *** DIIS converged in  16 iterations !
@     Converged SCF energy, gradient:   -413.613023928342    6.12D-06
    - total time used in SIRFCK :              0.00 seconds


 *** SCF orbital energy analysis ***

 Only the 20 lowest virtual orbital energies printed in each symmetry.

 Number of electrons :   60
 Orbital occupations :   30

 Sym       Hartree-Fock orbital energies

1 A     -20.57647212   -20.57349883   -15.82897372   -15.61427466   -11.33084610
        -11.28768141   -11.27424008   -11.24674868    -1.56865646    -1.36585774
         -1.26222069    -1.12707535    -1.04995960    -0.93774414    -0.83343026
         -0.79217595    -0.74618075    -0.74155035    -0.70203673    -0.68839653
         -0.67712469    -0.62135109    -0.59257111    -0.54743115    -0.54537348
         -0.47455152    -0.47030243    -0.44528514    -0.43292372    -0.31393329
          0.00835331     0.02083158     0.03282816     0.04400972     0.05145062
          0.05309227     0.05932464     0.06694963     0.07492443     0.07885866
          0.08348157     0.08568753     0.08823861     0.09769020     0.10699227
          0.11465141     0.11687356     0.12373450     0.13116381     0.13150816

    E(LUMO) :     0.00835331 au (symmetry 1)
  - E(HOMO) :    -0.31393329 au (symmetry 1)
  ------------------------------------------
    gap     :     0.32228660 au

 --- Writing SIRIFC interface file

 CPU and wall time for SCF :     827.417     836.545


                       .-----------------------------------.
                       | --- Final results from SIRIUS --- |
                       `-----------------------------------'


@    Spin multiplicity:           1
@    Spatial symmetry:            1 ( irrep  A   in C1  )
@    Total charge of molecule:    0

@    Final HF energy:            -413.613023928342                 
@    Nuclear repulsion:           334.724575361275
@    Electronic energy:          -748.337599289616

@    Final gradient norm:           0.000006117159

 
     Date and time (Linux)  : Mon May  5 20:44:54 2025
     Host name              : xm048                                   

File label for MO orbitals:   5May25   FOCKDIIS

 (Only coefficients > 0.0100 are printed.)

 Molecular orbitals for symmetry species 1  (A  )
 ------------------------------------------------

    Orbital        21       22       23       24       25       26       27
   2 C_a :1s    -0.1374  -0.0926  -0.0156   0.0000   0.0567  -0.0339   0.0036
   4 C_a :1s     0.0059   0.0239  -0.0023   0.0000   0.0166   0.0137   0.0067
   5 C_a :1s    -0.0122   0.0491  -0.0746  -0.0000  -0.0518  -0.1174   0.0996
   6 C_a :1s    -0.0119  -0.0449  -0.0100  -0.0000  -0.0218   0.0431  -0.0211
   7 C_a :2px   -0.3531   0.0416  -0.3713   0.0000  -0.1803   0.0024  -0.0092
   8 C_a :2py    0.2536   0.3701  -0.2407  -0.0000  -0.1853   0.0577  -0.0081
   9 C_a :2pz    0.0000  -0.0000  -0.0000   0.4313  -0.0000  -0.0000  -0.0000
  13 C_a :2px    0.0129   0.0164  -0.0106  -0.0000  -0.0197   0.0055  -0.0172
  14 C_a :2py   -0.0633  -0.0459   0.0030  -0.0000  -0.0207  -0.0158   0.0027
  15 C_a :2pz    0.0000  -0.0000   0.0000  -0.0172  -0.0000  -0.0000  -0.0000
  16 C_a :2px    0.0702   0.0257  -0.0373  -0.0000  -0.0445   0.0251  -0.0513
  17 C_a :2py   -0.0472   0.0023  -0.0866   0.0000   0.0261   0.0071   0.0273
  18 C_a :2pz   -0.0000  -0.0000   0.0000  -0.0499  -0.0000  -0.0000  -0.0000
  19 C_a :2px   -0.0028   0.0036   0.0017  -0.0000   0.0049  -0.0190  -0.0067
  27 C_a :3d2-  -0.0150  -0.0117  -0.0127   0.0000  -0.0098  -0.0015  -0.0015
  30 C_a :3d1+   0.0000   0.0000   0.0000  -0.0116  -0.0000   0.0000  -0.0000
  31 C_a :3d2+  -0.0024   0.0099  -0.0148   0.0000  -0.0105   0.0007  -0.0006
  32 C_a :3d2-  -0.0083  -0.0002   0.0155  -0.0000   0.0218   0.0113  -0.0081
  35 C_a :3d1+   0.0000  -0.0000   0.0000  -0.0104  -0.0000   0.0000  -0.0000
  36 C_a :3d2+  -0.0043   0.0206  -0.0028  -0.0000  -0.0034  -0.0101   0.0016
  37 C_a :3d2-  -0.0047   0.0095   0.0111   0.0000   0.0092   0.0170  -0.0064
  39 C_a :3d0    0.0181   0.0143   0.0036  -0.0000   0.0051  -0.0167   0.0038
  40 C_a :3d1+   0.0000  -0.0000   0.0000   0.0194   0.0000  -0.0000  -0.0000
  41 C_a :3d2+   0.0290   0.0452  -0.0279   0.0000   0.0085  -0.0093  -0.0027
  56 C_a :4f3-  -0.0070  -0.0009  -0.0104   0.0000  -0.0076   0.0031  -0.0022
  62 C_a :4f3+   0.0013  -0.0029  -0.0012  -0.0000   0.0167   0.0016   0.0014
  82 C_b :1s     0.0935  -0.0134   0.0032  -0.0000   0.0433   0.0400   0.0103
  84 C_b :1s    -0.0039  -0.0156  -0.0164  -0.0000   0.0067  -0.0180   0.0263
  85 C_b :1s     0.0568  -0.0312  -0.0448  -0.0000  -0.0515   0.1208   0.1483
  86 C_b :1s    -0.0945  -0.0090   0.0420   0.0000  -0.0303   0.2650  -0.1977
  87 C_b :2px   -0.1514   0.2968   0.1524   0.0000   0.4406   0.0467   0.0546
  88 C_b :2py   -0.2415  -0.4224   0.2797   0.0000   0.1213  -0.0827  -0.0054
  89 C_b :2pz   -0.0000  -0.0000  -0.0000   0.2801   0.0000  -0.0000   0.0000
  93 C_b :2px   -0.0164  -0.0196  -0.0008   0.0000   0.0110  -0.0015   0.0066
  94 C_b :2py    0.0073   0.0444  -0.0141  -0.0000  -0.0197  -0.0276  -0.0053
  96 C_b :2px    0.0131  -0.0116   0.0804   0.0000  -0.0097   0.0286   0.0974
  97 C_b :2py   -0.0062   0.0355  -0.1454   0.0000   0.0504   0.0321  -0.1179
  99 C_b :2px   -0.0150  -0.0033   0.0045   0.0000   0.0051   0.0528  -0.0038
 100 C_b :2py   -0.0020   0.0174  -0.0008  -0.0000   0.0128  -0.0434  -0.0424
 107 C_b :3d2-  -0.0038  -0.0124  -0.0047  -0.0000  -0.0157  -0.0027  -0.0015
 111 C_b :3d2+   0.0103   0.0112  -0.0062  -0.0000  -0.0154   0.0039  -0.0015
 112 C_b :3d2-   0.0046  -0.0327   0.0266  -0.0000   0.0290  -0.0084  -0.0094
 114 C_b :3d0   -0.0053  -0.0014   0.0024  -0.0000   0.0078  -0.0106   0.0004
 116 C_b :3d2+   0.0340   0.0215   0.0022  -0.0000   0.0412   0.0116   0.0086
 117 C_b :3d2-  -0.0054  -0.0304  -0.0019   0.0000   0.0249   0.0059  -0.0230
 119 C_b :3d0    0.0049  -0.0014  -0.0060  -0.0000   0.0046  -0.0150   0.0149
 120 C_b :3d1+  -0.0000   0.0000  -0.0000  -0.0120   0.0000   0.0000   0.0000
 121 C_b :3d2+   0.0336   0.0284  -0.0048  -0.0000   0.0315  -0.0841   0.0613
 136 C_b :4f3-   0.0062  -0.0062   0.0135   0.0000   0.0059  -0.0065  -0.0015
 142 C_b :4f3+  -0.0050   0.0025  -0.0166   0.0000   0.0153   0.0071  -0.0092
 162 C_c :1s     0.1139   0.0610   0.0131   0.0000   0.0658  -0.0320  -0.0558
 164 C_c :1s    -0.0146  -0.0119   0.0385  -0.0000   0.0036  -0.0014  -0.0633
 165 C_c :1s    -0.0040   0.0547   0.0699  -0.0000  -0.0275   0.0119  -0.2183
 166 C_c :1s     0.0077   0.0566  -0.0148   0.0000  -0.0179  -0.0798   0.1826
 167 C_c :2px    0.0487  -0.2974   0.2116   0.0000  -0.4496  -0.0222  -0.0776
 168 C_c :2py    0.1230   0.4388   0.2648   0.0000  -0.1420   0.1400   0.0345
 169 C_c :2pz   -0.0000   0.0000  -0.0000   0.1361   0.0000  -0.0000   0.0000
 173 C_c :2px   -0.0004   0.0198  -0.0014   0.0000  -0.0155   0.0257   0.0195
 174 C_c :2py    0.0068  -0.0580  -0.0112   0.0000   0.0135  -0.0076   0.0145
 176 C_c :2px   -0.0107  -0.0355   0.0880   0.0000  -0.0060   0.0772   0.1192
 177 C_c :2py   -0.0075   0.0057  -0.1264   0.0000  -0.0032   0.0790  -0.0957
 179 C_c :2px   -0.0233  -0.0068   0.0086  -0.0000  -0.0121   0.0467  -0.0913
 180 C_c :2py    0.0373  -0.0093  -0.0101   0.0000  -0.0067  -0.0534   0.1047
 187 C_c :3d2-  -0.0013  -0.0082   0.0065   0.0000  -0.0167  -0.0035  -0.0026
 191 C_c :3d2+   0.0104   0.0114   0.0055   0.0000  -0.0143   0.0037   0.0029
 192 C_c :3d2-  -0.0110  -0.0202  -0.0085   0.0000   0.0277   0.0124  -0.0138
 196 C_c :3d2+   0.0178   0.0183   0.0089   0.0000   0.0374   0.0185   0.0006
 197 C_c :3d2-  -0.0129  -0.0426   0.0136  -0.0000   0.0159   0.0407  -0.0109
 199 C_c :3d0   -0.0046  -0.0067   0.0050  -0.0000   0.0056   0.0187  -0.0196
 201 C_c :3d2+   0.0121   0.0339   0.0024   0.0000   0.0472  -0.0022  -0.0344
 216 C_c :4f3-   0.0061  -0.0002   0.0120   0.0000  -0.0052  -0.0020  -0.0166
 222 C_c :4f3+   0.0050   0.0015  -0.0106   0.0000  -0.0079   0.0119  -0.0214
 242 C_d :1s    -0.2179  -0.1134   0.0639  -0.0000   0.0067   0.1133  -0.0046
 244 C_d :1s     0.0104   0.0453   0.0060   0.0000   0.0234   0.0301   0.0344
 245 C_d :1s    -0.0268   0.0760   0.0615  -0.0000  -0.0122   0.0940  -0.1394
 246 C_d :1s     0.1029  -0.0211  -0.0266  -0.0000   0.0025  -0.2771   0.0489
 247 C_d :2px    0.2067  -0.1395  -0.2360   0.0000   0.1530   0.2516  -0.1315
 248 C_d :2py   -0.0031  -0.3260  -0.2778  -0.0000   0.2256  -0.1996  -0.0354
 249 C_d :2pz   -0.0000   0.0000  -0.0000   0.0708   0.0000   0.0000   0.0000
 253 C_d :2px   -0.0003  -0.0075  -0.0190  -0.0000   0.0223  -0.0094  -0.0008
 254 C_d :2py    0.0289   0.0143   0.0042   0.0000   0.0061   0.0332   0.0660
 256 C_d :2px   -0.0271  -0.0036  -0.0503  -0.0000   0.0546  -0.0587   0.0198
 257 C_d :2py    0.0088  -0.0072  -0.0617   0.0000  -0.0223   0.0389   0.1527
 258 C_d :2pz   -0.0000   0.0000   0.0000  -0.0137   0.0000   0.0000  -0.0000
 259 C_d :2px    0.0151  -0.0038  -0.0007   0.0000  -0.0001  -0.0094   0.0446
 260 C_d :2py    0.0120   0.0096   0.0016  -0.0000   0.0054  -0.0550  -0.0876
 267 C_d :3d2-  -0.0083  -0.0042   0.0115  -0.0000  -0.0118  -0.0142   0.0035
 272 C_d :3d2-  -0.0147   0.0073   0.0027   0.0000   0.0127   0.0117   0.0119
 276 C_d :3d2+  -0.0096   0.0221   0.0109   0.0000  -0.0111   0.0259   0.0196
 277 C_d :3d2-  -0.0095   0.0115   0.0046  -0.0000   0.0083   0.0519  -0.0197
 279 C_d :3d0    0.0037   0.0144   0.0015   0.0000   0.0062   0.0025  -0.0041
 281 C_d :3d2+  -0.0023   0.0313   0.0274  -0.0000  -0.0188   0.0091   0.0457
 289 C_d :4f3-   0.0006   0.0008  -0.0000  -0.0000  -0.0023  -0.0105  -0.0026
 295 C_d :4f3+  -0.0008  -0.0017  -0.0003  -0.0000  -0.0018   0.0024   0.0157
 296 C_d :4f3-   0.0025   0.0032  -0.0078   0.0000   0.0067   0.0046  -0.0140
 302 C_d :4f3+   0.0033  -0.0016   0.0016   0.0000  -0.0159   0.0110   0.0066
 322 N_a :1s     0.0463   0.0509   0.0443   0.0000   0.0387   0.0119   0.0051
 324 N_a :1s    -0.0034  -0.0032   0.0116  -0.0000   0.0111   0.0046  -0.0074
 325 N_a :1s     0.0120   0.0121   0.0426   0.0000   0.0115   0.0154  -0.0294
 326 N_a :1s    -0.0227  -0.0061  -0.0088   0.0000   0.0252  -0.0255   0.0541
 327 N_a :2px    0.3906  -0.0040   0.2269  -0.0000   0.0847   0.0114   0.0047
 328 N_a :2py   -0.1272  -0.2891   0.0526  -0.0000  -0.0124  -0.0268  -0.0058
 329 N_a :2pz    0.0000  -0.0000   0.0000   0.6514  -0.0000   0.0000  -0.0000
 336 N_a :2px   -0.0104  -0.0058   0.0135  -0.0000   0.0011  -0.0009  -0.0191
 337 N_a :2py   -0.0198   0.0004  -0.0054   0.0000   0.0086   0.0058  -0.0048
 338 N_a :2pz    0.0000  -0.0000   0.0000   0.0207  -0.0000   0.0000  -0.0000
 341 N_a :2pz    0.0000  -0.0000   0.0000   0.0143  -0.0000   0.0000  -0.0000
 352 N_a :3d2-  -0.0167  -0.0101  -0.0037   0.0000  -0.0037  -0.0024   0.0015
 355 N_a :3d1+   0.0000  -0.0000   0.0000   0.0101  -0.0000   0.0000  -0.0000
 356 N_a :3d2+  -0.0049   0.0112  -0.0045   0.0000  -0.0021   0.0002   0.0006
 357 N_a :3d2-  -0.0129  -0.0088  -0.0034   0.0000  -0.0047   0.0006   0.0017
 361 N_a :3d2+   0.0081   0.0018   0.0104   0.0000   0.0089  -0.0030  -0.0110
 376 N_a :4f3-  -0.0086  -0.0024  -0.0077  -0.0000  -0.0110   0.0001   0.0009
 402 N_b :1s     0.0399   0.0358  -0.0341   0.0000   0.0312   0.0242  -0.0042
 405 N_b :1s     0.0269   0.0188  -0.0347   0.0000   0.0213   0.1159   0.0247
 406 N_b :1s    -0.0634  -0.0274   0.0105   0.0000   0.0025   0.1614  -0.0716
 407 N_b :2px   -0.2583   0.0215   0.1391  -0.0000  -0.0965  -0.2398  -0.0020
 408 N_b :2py   -0.0790   0.1795   0.0225  -0.0000   0.0287   0.1477  -0.1089
 409 N_b :2pz   -0.0000   0.0000   0.0000  -0.0254  -0.0000   0.0000  -0.0000
 413 N_b :2px    0.0107  -0.0015  -0.0038   0.0000   0.0029   0.0080  -0.0174
 414 N_b :2py   -0.0002  -0.0104  -0.0033   0.0000   0.0029  -0.0142  -0.0074
 416 N_b :2px    0.0318   0.0147  -0.0142   0.0000   0.0285  -0.0877  -0.0270
 417 N_b :2py    0.0101  -0.0232   0.0061   0.0000  -0.0018   0.0614  -0.0644
 419 N_b :2px    0.0169   0.0095  -0.0133   0.0000   0.0085  -0.0714   0.0310
 420 N_b :2py   -0.0111  -0.0236  -0.0016   0.0000  -0.0037   0.0618   0.0591
 427 N_b :3d2-   0.0005   0.0062   0.0009   0.0000  -0.0004  -0.0335  -0.0009
 431 N_b :3d2+  -0.0072   0.0087   0.0078  -0.0000  -0.0025   0.0052  -0.0260
 432 N_b :3d2-  -0.0085   0.0004   0.0031   0.0000  -0.0034  -0.0315   0.0093
 436 N_b :3d2+  -0.0062   0.0071   0.0029   0.0000  -0.0012   0.0251   0.0143
 437 N_b :3d2-  -0.0186  -0.0052   0.0096   0.0000  -0.0069   0.0179   0.0279
 441 N_b :3d2+  -0.0130   0.0162   0.0052   0.0000  -0.0101   0.0120   0.1167
 455 N_b :4f3+   0.0009  -0.0007  -0.0006  -0.0000   0.0013  -0.0041  -0.0130
 482 O_a :1s     0.1212  -0.0398  -0.0489  -0.0000   0.0373   0.0118  -0.0054
 484 O_a :1s     0.0213  -0.0079  -0.0104  -0.0000   0.0062   0.0012  -0.0031
 485 O_a :1s     0.0469  -0.0238  -0.0181  -0.0000   0.0065   0.0155  -0.0144
 486 O_a :1s     0.0247  -0.0091  -0.0048  -0.0000   0.0134  -0.0140  -0.1125
 487 O_a :2px    0.1606  -0.1506  -0.0737   0.0000   0.0548   0.3991  -0.2545
 488 O_a :2py    0.1854  -0.0028  -0.1329   0.0000   0.0402  -0.2602   0.7385
 489 O_a :2pz   -0.0000   0.0000  -0.0000  -0.0292   0.0000   0.0000  -0.0000
 493 O_a :2px   -0.0122   0.0040   0.0044   0.0000  -0.0021  -0.0000  -0.0012
 496 O_a :2px    0.0002  -0.0069  -0.0049   0.0000   0.0077   0.0325  -0.0537
 497 O_a :2py    0.0042   0.0093  -0.0089   0.0000   0.0050  -0.0473   0.0901
 499 O_a :2px   -0.0030  -0.0019   0.0021   0.0000  -0.0023   0.0270  -0.0016
 500 O_a :2py    0.0094   0.0047  -0.0079   0.0000   0.0043  -0.0290   0.0472
 512 O_a :3d2-  -0.0088   0.0030   0.0058  -0.0000  -0.0023  -0.0006  -0.0153
 516 O_a :3d2+  -0.0014   0.0063   0.0001   0.0000  -0.0000  -0.0111   0.0142
 517 O_a :3d2-  -0.0083   0.0004   0.0060  -0.0000  -0.0033   0.0076  -0.0171
 521 O_a :3d2+  -0.0034   0.0065   0.0018  -0.0000  -0.0024  -0.0176   0.0199
 562 O_b :1s    -0.0733   0.0568   0.0095  -0.0000   0.0085   0.0099  -0.0027
 564 O_b :1s    -0.0098   0.0129   0.0041  -0.0000   0.0004   0.0084  -0.0007
 565 O_b :1s    -0.0268   0.0255   0.0127   0.0000  -0.0047   0.0335   0.0006
 566 O_b :1s     0.0039   0.0202   0.0032   0.0000  -0.0072   0.0206   0.1229
 567 O_b :2px   -0.1245  -0.1403   0.0440  -0.0000  -0.0731   0.6728   0.5550
 568 O_b :2py    0.1621  -0.1422  -0.0824   0.0000   0.0174  -0.2800   0.1178
 569 O_b :2pz    0.0000  -0.0000   0.0000  -0.0331  -0.0000  -0.0000   0.0000
 576 O_b :2px   -0.0088  -0.0069   0.0070   0.0000  -0.0084   0.0786   0.0569
 577 O_b :2py   -0.0011  -0.0069  -0.0020   0.0000   0.0004  -0.0172  -0.0186
 579 O_b :2px   -0.0075  -0.0113   0.0023   0.0000  -0.0050   0.0486   0.0373
 580 O_b :2py    0.0048   0.0046  -0.0007   0.0000  -0.0008  -0.0130   0.0177
 592 O_b :3d2-  -0.0044  -0.0062   0.0009   0.0000  -0.0020   0.0136   0.0144
 596 O_b :3d2+  -0.0063   0.0049   0.0041  -0.0000  -0.0020   0.0103  -0.0019
 597 O_b :3d2-  -0.0033  -0.0048   0.0019   0.0000  -0.0026   0.0222   0.0134
 601 O_b :3d2+  -0.0040   0.0055   0.0028  -0.0000  -0.0009   0.0114   0.0026
 641 H_a :1s    -0.3246   0.1159  -0.4911  -0.0000  -0.2756   0.0017  -0.0178
 642 H_a :1s     0.0111  -0.0036   0.0155   0.0000   0.0089  -0.0002   0.0015
 643 H_a :1s     0.0843  -0.0453   0.1104   0.0000   0.0552  -0.0027   0.0117
 644 H_a :1s     0.0591  -0.0892   0.2353  -0.0000   0.0897  -0.0475   0.0605
 645 H_a :1s     0.0013  -0.0027  -0.0030  -0.0000  -0.0019   0.0140  -0.0003
 655 H_a :2px   -0.0045   0.0055  -0.0150  -0.0000  -0.0092   0.0102  -0.0049
 656 H_a :2py    0.0184   0.0087  -0.0224  -0.0000  -0.0055  -0.0148  -0.0050
 687 H_b :1s     0.2736  -0.1197  -0.2699  -0.0000  -0.5231   0.0150  -0.0512
 688 H_b :1s    -0.0098   0.0053   0.0093   0.0000   0.0166  -0.0006   0.0017
 689 H_b :1s    -0.1054   0.0337   0.0421   0.0000   0.0699  -0.0238  -0.0042
 690 H_b :1s    -0.0946   0.0325   0.0954   0.0000   0.0734   0.0511   0.0167
 691 H_b :1s    -0.0102   0.0020   0.0041   0.0000   0.0038   0.0241  -0.0038
 698 H_b :2px   -0.0073   0.0025  -0.0041   0.0000  -0.0112  -0.0056  -0.0028
 699 H_b :2py   -0.0108  -0.0038  -0.0075   0.0000  -0.0037  -0.0014  -0.0054
 702 H_b :2py   -0.0147  -0.0219   0.0078   0.0000  -0.0046   0.0291  -0.0159
 733 H_c :1s    -0.3417   0.1251  -0.2604   0.0000  -0.0914   0.0045  -0.0027
 734 H_c :1s     0.0160  -0.0031   0.0093  -0.0000   0.0036   0.0006  -0.0004
 735 H_c :1s     0.0797  -0.0323   0.0480  -0.0000   0.0148   0.0000  -0.0041
 736 H_c :1s     0.0831  -0.0476   0.0615  -0.0000  -0.0012   0.0052  -0.0027
 746 H_c :2pz   -0.0000  -0.0000  -0.0000   0.0147   0.0000  -0.0000   0.0000
 779 H_d :1s    -0.0112  -0.2968   0.1551  -0.0000   0.0377  -0.0243  -0.0026
 780 H_d :1s     0.0023   0.0115  -0.0032  -0.0000  -0.0001   0.0014   0.0001
 781 H_d :1s     0.0089   0.0587  -0.0265   0.0000  -0.0194   0.0016   0.0062
 782 H_d :1s     0.0685   0.1177  -0.0080   0.0000   0.0106  -0.0071  -0.0317
 790 H_d :2px    0.0112   0.0025   0.0077  -0.0000   0.0090   0.0003   0.0004
 792 H_d :2pz   -0.0000  -0.0000  -0.0000   0.0176   0.0000  -0.0000   0.0000
 794 H_d :2py   -0.0164  -0.0156  -0.0042   0.0000  -0.0036   0.0023   0.0057
 825 H_e :1s     0.1579  -0.0499   0.3078   0.0000  -0.5052  -0.0122  -0.0519
 826 H_e :1s    -0.0044   0.0034  -0.0103  -0.0000   0.0157  -0.0006  -0.0003
 827 H_e :1s    -0.0450   0.0124  -0.0809  -0.0000   0.0723  -0.0463   0.0484
 828 H_e :1s    -0.0453   0.0485  -0.1330   0.0000   0.0656  -0.1171  -0.0275
 829 H_e :1s    -0.0002   0.0053   0.0017   0.0000   0.0039  -0.0085   0.0112
 836 H_e :2px   -0.0015  -0.0004  -0.0015   0.0000   0.0115   0.0091   0.0026
 837 H_e :2py    0.0023   0.0015  -0.0013   0.0000  -0.0001   0.0090  -0.0143
 839 H_e :2px   -0.0073  -0.0156   0.0126  -0.0000  -0.0067   0.0286   0.0212
 840 H_e :2py    0.0178   0.0143   0.0033   0.0000   0.0095  -0.0014  -0.0302
 852 H_e :3d2-   0.0003  -0.0020  -0.0014  -0.0000   0.0018  -0.0016   0.0103
 871 H_f :1s    -0.2966   0.2155   0.4117  -0.0000  -0.3010  -0.0892   0.1373
 872 H_f :1s     0.0108  -0.0083  -0.0151  -0.0000   0.0103   0.0004   0.0001
 873 H_f :1s     0.0934  -0.0798  -0.1255  -0.0000   0.0780  -0.0194  -0.0171
 874 H_f :1s     0.1110  -0.0935  -0.2398   0.0000   0.1314  -0.0925   0.0479
 875 H_f :1s     0.0111   0.0004  -0.0011  -0.0000   0.0005  -0.0223  -0.0091
 882 H_f :2px    0.0004  -0.0041  -0.0014  -0.0000   0.0029  -0.0106   0.0077
 885 H_f :2px    0.0062  -0.0020  -0.0167  -0.0000   0.0047  -0.0137   0.0265
 886 H_f :2py    0.0014  -0.0103  -0.0265   0.0000   0.0165  -0.0032  -0.0103

    Orbital        28       29       30       31       32       33       34
   2 C_a :1s    -0.0000  -0.0000   0.0000  -0.0133  -0.0429  -0.0346   0.0178
   3 C_a :1s     0.0000   0.0000   0.0000  -0.0012  -0.0154   0.0040   0.0085
   4 C_a :1s    -0.0000  -0.0000  -0.0000  -0.0657   0.0434   0.5889  -0.0179
   5 C_a :1s    -0.0000   0.0000   0.0000   1.3341   1.7902  -0.0760   3.0847
   6 C_a :1s     0.0000   0.0000   0.0000  -5.2204  25.7465 -10.1280  -8.3791
   7 C_a :2px   -0.0000  -0.0000  -0.0000  -0.0554  -0.0416  -0.0320   0.0180
   8 C_a :2py   -0.0000   0.0000  -0.0000   0.0048  -0.0188  -0.0344   0.0035
   9 C_a :2pz    0.0357  -0.0048  -0.3142   0.0000   0.0000   0.0000   0.0000
  13 C_a :2px   -0.0000   0.0000  -0.0000   0.0726  -0.0369  -0.1150   0.0259
  14 C_a :2py    0.0000  -0.0000   0.0000  -0.1799  -0.0661   0.0172  -0.0922
  16 C_a :2px   -0.0000  -0.0000  -0.0000  -0.1327   0.4817  -1.8891  -1.4534
  17 C_a :2py    0.0000  -0.0000  -0.0000  -0.2592   0.7125  -0.5911  -3.9070
  19 C_a :2px   -0.0000  -0.0000  -0.0000   1.8002  -3.5009  -3.3425   2.2669
  20 C_a :2py   -0.0000   0.0000  -0.0000  -4.3538  -4.6229   3.5871   1.9063
  21 C_a :2pz    0.0019   0.0085  -0.0144   0.0000  -0.0000  -0.0000   0.0000
  28 C_a :3d1-  -0.0152   0.0012   0.0218  -0.0000   0.0000  -0.0000   0.0000
  32 C_a :3d2-  -0.0000  -0.0000  -0.0000   0.3530  -0.0340   0.2801  -0.0178
  33 C_a :3d1-  -0.0180  -0.0001   0.0307  -0.0000   0.0000  -0.0000  -0.0000
  34 C_a :3d0    0.0000   0.0000  -0.0000  -0.0494  -0.0569   0.1950  -0.0265
  36 C_a :3d2+  -0.0000  -0.0000   0.0000   0.0605  -0.2230   0.2835  -0.2434
  37 C_a :3d2-   0.0000   0.0000  -0.0000   1.1054   0.3420   1.7184   0.2105
  38 C_a :3d1-   0.0008  -0.0025   0.0160   0.0000   0.0000  -0.0000  -0.0000
  39 C_a :3d0   -0.0000   0.0000   0.0000  -0.3508  -0.5063   1.5538   0.5194
  40 C_a :3d1+   0.0104   0.0006  -0.0043  -0.0000  -0.0000  -0.0000  -0.0000
  41 C_a :3d2+  -0.0000  -0.0000  -0.0000   0.5178   0.0631   0.5983  -0.9478
  49 C_a :4f3-  -0.0000  -0.0000  -0.0000  -0.0127  -0.0020  -0.0175  -0.0196
  51 C_a :4f1-  -0.0000   0.0000  -0.0000   0.0109   0.0049  -0.0070   0.0069
  55 C_a :4f3+  -0.0000  -0.0000  -0.0000  -0.0011   0.0215   0.0002   0.0146
  56 C_a :4f3-   0.0000  -0.0000  -0.0000   0.0334   0.1181  -0.2395  -0.1406
  58 C_a :4f1-   0.0000   0.0000   0.0000   0.0048  -0.0477   0.0106   0.0509
  60 C_a :4f1+  -0.0000  -0.0000   0.0000  -0.0328   0.0056   0.0622   0.0235
  62 C_a :4f3+  -0.0000  -0.0000  -0.0000   0.0550   0.0412   0.0722  -0.0634
  72 C_a :5g4-   0.0000   0.0000   0.0000   0.0031   0.0069  -0.0198   0.0125
  78 C_a :5g2+   0.0000   0.0000  -0.0000   0.0016   0.0069  -0.0068   0.0114
  80 C_a :5g4+  -0.0000  -0.0000   0.0000   0.0064  -0.0044   0.0177   0.0083
  82 C_b :1s    -0.0000  -0.0000  -0.0000  -0.0236   0.0387  -0.0276   0.0002
  83 C_b :1s    -0.0000  -0.0000  -0.0000   0.0030   0.0314  -0.0300   0.0329
  84 C_b :1s    -0.0000   0.0000   0.0000   0.0574  -0.1907   0.4916  -0.0448
  85 C_b :1s     0.0000  -0.0000  -0.0000   0.2414  -3.2361   4.2978  -5.4254
  86 C_b :1s     0.0000  -0.0000  -0.0000  -0.5688 -29.6514   0.0186  -4.5208
  87 C_b :2px   -0.0000  -0.0000   0.0000   0.0256  -0.0398   0.0361   0.0023
  88 C_b :2py    0.0000  -0.0000   0.0000   0.0066  -0.0138   0.0201  -0.0043
  89 C_b :2pz    0.3305  -0.0319  -0.4917   0.0000   0.0000  -0.0000  -0.0000
  93 C_b :2px   -0.0000  -0.0000  -0.0000  -0.0490  -0.0680   0.0067  -0.0730
  94 C_b :2py    0.0000   0.0000   0.0000  -0.1300  -0.1206   0.2026   0.0474
  96 C_b :2px    0.0000  -0.0000   0.0000   0.3180   0.8576   2.8775  -1.4625
  97 C_b :2py    0.0000  -0.0000  -0.0000  -0.6381   0.7279  -0.2625  -2.0326
  98 C_b :2pz    0.0056  -0.0021  -0.0466   0.0000  -0.0000  -0.0000  -0.0000
  99 C_b :2px   -0.0000  -0.0000  -0.0000   1.2383  -3.7645   2.3325  -4.2363
 100 C_b :2py   -0.0000  -0.0000   0.0000  -0.2144  -5.2693   1.0144   2.9397
 101 C_b :2pz    0.0042  -0.0001  -0.0272   0.0000   0.0000   0.0000   0.0000
 108 C_b :3d1-  -0.0030   0.0007  -0.0127   0.0000   0.0000  -0.0000  -0.0000
 109 C_b :3d0   -0.0000  -0.0000  -0.0000   0.0024   0.0084  -0.0102   0.0098
 112 C_b :3d2-  -0.0000  -0.0000   0.0000   0.2298  -0.0776   0.4597  -0.0002
 113 C_b :3d1-   0.0028  -0.0042  -0.0156  -0.0000   0.0000   0.0000   0.0000
 114 C_b :3d0   -0.0000   0.0000   0.0000   0.0381   0.1182  -0.0406   0.2764
 116 C_b :3d2+  -0.0000  -0.0000   0.0000   0.2135  -0.1700   0.4174  -0.1545
 117 C_b :3d2-   0.0000  -0.0000   0.0000   1.8704  -0.3143   0.4986   0.0941
 119 C_b :3d0   -0.0000   0.0000   0.0000   0.4335   0.7819   0.6115   0.5500
 120 C_b :3d1+  -0.0179  -0.0028  -0.0124   0.0000   0.0000   0.0000   0.0000
 121 C_b :3d2+  -0.0000   0.0000   0.0000  -0.4681  -0.6494   2.0294   0.7182
 129 C_b :4f3-  -0.0000  -0.0000  -0.0000   0.0056   0.0177   0.0127   0.0177
 135 C_b :4f3+   0.0000  -0.0000  -0.0000   0.0058  -0.0062  -0.0091  -0.0110
 136 C_b :4f3-   0.0000   0.0000   0.0000   0.0578   0.2285   0.0569   0.0274
 138 C_b :4f1-  -0.0000   0.0000   0.0000  -0.0120  -0.0532   0.0832  -0.0009
 140 C_b :4f1+  -0.0000   0.0000   0.0000   0.0192  -0.0641  -0.0158  -0.0184
 142 C_b :4f3+  -0.0000  -0.0000   0.0000  -0.1776   0.0917   0.0609  -0.0450
 160 C_b :5g4+   0.0000   0.0000   0.0000   0.0157   0.0030  -0.0092   0.0021
 162 C_c :1s    -0.0000   0.0000  -0.0000   0.0072  -0.0197  -0.0245   0.0153
 163 C_c :1s    -0.0000   0.0000   0.0000  -0.0090  -0.0158  -0.0129  -0.0006
 164 C_c :1s     0.0000   0.0000  -0.0000   0.3083   0.0591   0.3181  -0.1583
 165 C_c :1s     0.0000   0.0000  -0.0000   1.2086   0.5972   0.7309   1.3464
 166 C_c :1s    -0.0000   0.0000  -0.0000  -2.1379  22.7732  -2.0962 -21.6664
 167 C_c :2px    0.0000   0.0000  -0.0000  -0.0213  -0.0161  -0.0334   0.0208
 168 C_c :2py    0.0000  -0.0000  -0.0000   0.0060  -0.0069  -0.0148   0.0037
 169 C_c :2pz    0.4700  -0.0423   0.1591  -0.0000   0.0000  -0.0000   0.0000
 173 C_c :2px    0.0000  -0.0000  -0.0000  -0.1479  -0.0946  -0.0722  -0.1834
 174 C_c :2py    0.0000  -0.0000   0.0000  -0.0347   0.0124   0.0454   0.3501
 176 C_c :2px    0.0000  -0.0000   0.0000  -1.9381   1.1066  -0.8489  -1.4180
 177 C_c :2py    0.0000  -0.0000  -0.0000  -0.4834   1.4493  -1.0954   1.0658
 178 C_c :2pz   -0.0102  -0.0143   0.0045  -0.0000  -0.0000  -0.0000   0.0000
 179 C_c :2px    0.0000  -0.0000  -0.0000   1.2016  -1.7769  -2.4139  -1.5947
 180 C_c :2py   -0.0000   0.0000   0.0000  -3.6167  -1.5925   2.2991  11.1433
 181 C_c :2pz    0.0024  -0.0209   0.0096  -0.0000   0.0000   0.0000   0.0000
 187 C_c :3d2-   0.0000   0.0000  -0.0000   0.0019  -0.0025  -0.0009  -0.0117
 188 C_c :3d1-  -0.0082   0.0005  -0.0214   0.0000  -0.0000   0.0000  -0.0000
 192 C_c :3d2-  -0.0000  -0.0000  -0.0000   0.0742  -0.1504   0.2026  -0.2034
 193 C_c :3d1-  -0.0076   0.0006  -0.0274  -0.0000  -0.0000   0.0000  -0.0000
 194 C_c :3d0   -0.0000  -0.0000   0.0000   0.0311  -0.0144   0.0277  -0.0466
 195 C_c :3d1+  -0.0105   0.0075   0.0094   0.0000  -0.0000  -0.0000  -0.0000
 196 C_c :3d2+  -0.0000  -0.0000   0.0000  -0.0506  -0.1541   0.4066  -0.0181
 197 C_c :3d2-  -0.0000  -0.0000   0.0000   0.8090   0.5197   2.6782   1.0315
 198 C_c :3d1-   0.0108   0.0007   0.0095   0.0000  -0.0000  -0.0000  -0.0000
 199 C_c :3d0    0.0000  -0.0000   0.0000   0.6093  -0.6631   0.5911   0.9221
 200 C_c :3d1+   0.0231  -0.0000  -0.0036  -0.0000  -0.0000  -0.0000  -0.0000
 201 C_c :3d2+  -0.0000  -0.0000   0.0000  -0.7029  -0.2179   0.7819  -0.1688
 209 C_c :4f3-   0.0000  -0.0000  -0.0000   0.0028   0.0109  -0.0090  -0.0009
 211 C_c :4f1-  -0.0000   0.0000  -0.0000   0.0055  -0.0031   0.0010  -0.0109
 215 C_c :4f3+   0.0000  -0.0000  -0.0000   0.0088   0.0076   0.0093   0.0154
 216 C_c :4f3-  -0.0000   0.0000   0.0000  -0.0850   0.1585   0.0746  -0.2266
 218 C_c :4f1-  -0.0000  -0.0000   0.0000   0.0215  -0.0060   0.0093   0.0713
 220 C_c :4f1+  -0.0000   0.0000  -0.0000   0.0532  -0.0515  -0.0138  -0.0008
 222 C_c :4f3+   0.0000   0.0000  -0.0000  -0.0804   0.1323  -0.0548   0.1318
 232 C_c :5g4-  -0.0000   0.0000   0.0000  -0.0127  -0.0008  -0.0059  -0.0017
 242 C_d :1s    -0.0000  -0.0000   0.0000  -0.0033   0.0178  -0.0274  -0.0392
 243 C_d :1s    -0.0000  -0.0000   0.0000   0.0128   0.0119  -0.0012  -0.0149
 244 C_d :1s    -0.0000  -0.0000  -0.0000   0.1116  -0.1659   0.2336  -0.1615
 245 C_d :1s     0.0000  -0.0000  -0.0000  -1.8688  -0.7920  -0.0892   4.8485
 246 C_d :1s    -0.0000   0.0000   0.0000  -7.2667 -13.5132  -0.9366  33.0827
 247 C_d :2px    0.0000  -0.0000  -0.0000   0.0031  -0.0179   0.0243   0.0346
 248 C_d :2py   -0.0000   0.0000   0.0000   0.0020  -0.0106   0.0250   0.0144
 249 C_d :2pz    0.4345  -0.0525   0.4813   0.0000   0.0000   0.0000   0.0000
 253 C_d :2px    0.0000  -0.0000  -0.0000   0.1222   0.0803   0.0864  -0.0726
 254 C_d :2py   -0.0000  -0.0000   0.0000  -0.0262  -0.1417   0.1352   0.0462
 256 C_d :2px   -0.0000  -0.0000   0.0000   1.5024   0.8518   2.7319   0.4208
 257 C_d :2py   -0.0000  -0.0000   0.0000  -0.0906   1.8324  -0.3181  -0.9836
 258 C_d :2pz    0.0033   0.0053   0.0399   0.0000  -0.0000   0.0000  -0.0000
 259 C_d :2px   -0.0000   0.0000   0.0000  -1.0180  -0.3788   1.7205   4.8950
 260 C_d :2py    0.0000   0.0000   0.0000  -0.5493  -3.4194   0.0953   9.8062
 261 C_d :2pz    0.0070   0.0160   0.0207   0.0000  -0.0000   0.0000  -0.0000
 267 C_d :3d2-   0.0000  -0.0000  -0.0000   0.0009   0.0032  -0.0014   0.0113
 268 C_d :3d1-   0.0127  -0.0001   0.0058   0.0000   0.0000   0.0000   0.0000
 272 C_d :3d2-  -0.0000  -0.0000  -0.0000  -0.0183  -0.2313   0.0168   0.1479
 273 C_d :3d1-   0.0193   0.0054   0.0092   0.0000  -0.0000   0.0000  -0.0000
 274 C_d :3d0   -0.0000  -0.0000  -0.0000   0.1283  -0.0148   0.0606  -0.1927
 276 C_d :3d2+   0.0000   0.0000  -0.0000   0.0361  -0.0395   0.0137  -0.0281
 277 C_d :3d2-   0.0000  -0.0000  -0.0000   0.4489  -0.3957   0.3454   0.4185
 278 C_d :3d1-   0.0034   0.0181   0.0178  -0.0000  -0.0000  -0.0000  -0.0000
 279 C_d :3d0    0.0000  -0.0000  -0.0000   0.1882   0.1225   0.1900  -0.8525
 280 C_d :3d1+  -0.0176   0.0106  -0.0006   0.0000   0.0000   0.0000   0.0000
 281 C_d :3d2+  -0.0000  -0.0000  -0.0000   0.2417  -0.5944   0.7799   1.2856
 289 C_d :4f3-  -0.0000  -0.0000   0.0000   0.0086   0.0060   0.0140  -0.0079
 295 C_d :4f3+  -0.0000  -0.0000   0.0000  -0.0161  -0.0027  -0.0127  -0.0111
 296 C_d :4f3-  -0.0000   0.0000   0.0000   0.0373   0.1359   0.0668  -0.2837
 298 C_d :4f1-   0.0000  -0.0000   0.0000  -0.0006  -0.0676   0.0115   0.0467
 300 C_d :4f1+   0.0000   0.0000  -0.0000  -0.0475   0.0057  -0.0728   0.0289
 302 C_d :4f3+   0.0000   0.0000  -0.0000  -0.0671   0.0620  -0.1210   0.0479
 322 N_a :1s    -0.0000   0.0000  -0.0000  -0.1008   0.0156   0.0207   0.0009
 323 N_a :1s     0.0000   0.0000  -0.0000  -0.0177   0.0102  -0.0056  -0.0073
 324 N_a :1s    -0.0000  -0.0000   0.0000   0.0882  -0.0152   0.2403   0.0536
 325 N_a :1s    -0.0000   0.0000  -0.0000   1.4924  -1.2622   0.6167   0.9697
 326 N_a :1s    -0.0000  -0.0000  -0.0000  10.5025  -7.7395  -2.9860   2.0718
 327 N_a :2px   -0.0000   0.0000  -0.0000   0.0369  -0.0491  -0.0017  -0.0379
 328 N_a :2py   -0.0000  -0.0000   0.0000  -0.0526  -0.0389   0.0116  -0.0323
 329 N_a :2pz   -0.3862   0.0324   0.3841   0.0000   0.0000   0.0000   0.0000
 333 N_a :2px   -0.0000  -0.0000   0.0000   0.0491  -0.0597   0.0255  -0.0671
 334 N_a :2py   -0.0000  -0.0000  -0.0000  -0.0514  -0.0468  -0.0112  -0.1133
 336 N_a :2px    0.0000   0.0000  -0.0000   0.1099  -0.2740   0.3607  -0.5232
 337 N_a :2py    0.0000   0.0000   0.0000   0.0628  -0.5554  -0.1746  -0.4707
 338 N_a :2pz   -0.0196   0.0004   0.0423  -0.0000   0.0000   0.0000  -0.0000
 339 N_a :2px   -0.0000   0.0000  -0.0000   2.2835  -1.1381  -0.7352  -1.0019
 340 N_a :2py    0.0000  -0.0000   0.0000  -1.7382   0.7274   0.8561  -1.7002
 341 N_a :2pz   -0.0123  -0.0036   0.0328   0.0000   0.0000   0.0000   0.0000
 352 N_a :3d2-  -0.0000  -0.0000  -0.0000   0.0415  -0.0286  -0.0035   0.0164
 354 N_a :3d0    0.0000  -0.0000   0.0000  -0.0666   0.0458   0.0565  -0.0079
 356 N_a :3d2+  -0.0000  -0.0000   0.0000  -0.0232  -0.0605   0.0481  -0.0648
 357 N_a :3d2-   0.0000   0.0000   0.0000   0.2303  -0.1945   0.0387   0.2895
 359 N_a :3d0    0.0000   0.0000   0.0000  -0.2115   0.2151   0.3124   0.0528
 361 N_a :3d2+  -0.0000   0.0000  -0.0000  -0.1101  -0.0304   0.1341   0.2853
 376 N_a :4f3-   0.0000  -0.0000   0.0000  -0.0284   0.0476  -0.0484  -0.0208
 378 N_a :4f1-  -0.0000   0.0000  -0.0000  -0.0007   0.0235  -0.0254   0.0043
 380 N_a :4f1+  -0.0000  -0.0000  -0.0000   0.0005   0.0091  -0.0041   0.0229
 382 N_a :4f3+  -0.0000  -0.0000  -0.0000  -0.0126   0.0085  -0.0118  -0.0704
 402 N_b :1s     0.0000  -0.0000  -0.0000   0.0021   0.0016   0.0125   0.0059
 404 N_b :1s    -0.0000   0.0000   0.0000   0.0035  -0.0105   0.0193   0.0702
 405 N_b :1s     0.0000  -0.0000  -0.0000   0.2869  -0.0576  -0.9551  -1.6309
 406 N_b :1s     0.0000  -0.0000  -0.0000   3.0239   1.2398   0.7593  -5.4667
 409 N_b :2pz   -0.0494  -0.0050   0.0263   0.0000   0.0000   0.0000   0.0000
 413 N_b :2px    0.0000   0.0000   0.0000   0.0230   0.0215  -0.0208   0.0969
 414 N_b :2py    0.0000   0.0000   0.0000   0.0164   0.0205   0.0577   0.0348
 416 N_b :2px    0.0000   0.0000   0.0000   0.0108   0.1190  -0.0948   0.2710
 417 N_b :2py    0.0000   0.0000   0.0000  -0.0599  -0.0309   0.2188  -0.5913
 418 N_b :2pz    0.0247  -0.0030   0.0090  -0.0000   0.0000  -0.0000   0.0000
 419 N_b :2px   -0.0000   0.0000   0.0000  -0.1422  -0.2034  -0.7164   0.3471
 420 N_b :2py   -0.0000  -0.0000  -0.0000   0.1173   0.7248   0.6975  -2.4270
 428 N_b :3d1-   0.0082   0.0236   0.0070   0.0000  -0.0000   0.0000   0.0000
 430 N_b :3d1+  -0.0061   0.0185  -0.0092  -0.0000  -0.0000  -0.0000  -0.0000
 432 N_b :3d2-   0.0000   0.0000  -0.0000   0.0420   0.0154   0.0568  -0.0949
 433 N_b :3d1-   0.0109   0.0278   0.0120   0.0000  -0.0000   0.0000   0.0000
 434 N_b :3d0   -0.0000   0.0000   0.0000  -0.0091   0.0190   0.0315   0.0345
 435 N_b :3d1+  -0.0099   0.0212  -0.0151  -0.0000  -0.0000   0.0000  -0.0000
 436 N_b :3d2+  -0.0000   0.0000   0.0000  -0.0087  -0.0123  -0.0166   0.0270
 437 N_b :3d2-   0.0000  -0.0000  -0.0000   0.1810   0.1137   0.3330  -0.2337
 438 N_b :3d1-   0.0010  -0.0140   0.0031  -0.0000  -0.0000  -0.0000  -0.0000
 439 N_b :3d0    0.0000   0.0000   0.0000  -0.0439  -0.0039  -0.0286  -0.0218
 441 N_b :3d2+  -0.0000   0.0000  -0.0000   0.0036   0.0514  -0.2530  -0.1028
 456 N_b :4f3-   0.0000  -0.0000   0.0000   0.0054   0.0012   0.0266   0.0157
 460 N_b :4f1+   0.0000   0.0000  -0.0000   0.0024  -0.0058   0.0119   0.0166
 462 N_b :4f3+  -0.0000   0.0000  -0.0000   0.0230   0.0346   0.0144  -0.0170
 482 O_a :1s    -0.0000   0.0000  -0.0000  -0.0024  -0.0055  -0.0209   0.0044
 484 O_a :1s     0.0000   0.0000   0.0000   0.0034   0.0121   0.0059   0.0220
 485 O_a :1s    -0.0000  -0.0000  -0.0000  -0.1830  -0.0988  -0.0658   0.2231
 486 O_a :1s     0.0000   0.0000   0.0000  -0.7087  -0.3458   0.4553   0.7971
 488 O_a :2py   -0.0000   0.0000   0.0000  -0.0000  -0.0056  -0.0041   0.0118
 489 O_a :2pz   -0.0859   0.6609  -0.1516   0.0000   0.0000   0.0000   0.0000
 493 O_a :2px    0.0000  -0.0000   0.0000   0.0155  -0.0008   0.0015  -0.0132
 494 O_a :2py   -0.0000  -0.0000   0.0000   0.0070   0.0033  -0.0103   0.0013
 495 O_a :2pz   -0.0009   0.0105  -0.0023  -0.0000  -0.0000  -0.0000  -0.0000
 496 O_a :2px    0.0000   0.0000   0.0000   0.1010   0.0157   0.0630  -0.0600
 497 O_a :2py   -0.0000   0.0000   0.0000   0.0302   0.0382  -0.2162   0.1139
 498 O_a :2pz   -0.0125   0.0709  -0.0194   0.0000  -0.0000  -0.0000  -0.0000
 499 O_a :2px    0.0000   0.0000  -0.0000   0.1526   0.0842   0.0163   0.0683
 500 O_a :2py   -0.0000   0.0000   0.0000   0.1245  -0.1613  -0.1539   0.3991
 501 O_a :2pz   -0.0028   0.0367  -0.0139   0.0000   0.0000   0.0000   0.0000
 512 O_a :3d2-   0.0000  -0.0000  -0.0000  -0.0050   0.0016   0.0177  -0.0289
 515 O_a :3d1+   0.0024  -0.0208   0.0022  -0.0000  -0.0000  -0.0000  -0.0000
 516 O_a :3d2+  -0.0000  -0.0000   0.0000  -0.0100  -0.0003  -0.0191   0.0028
 517 O_a :3d2-   0.0000  -0.0000   0.0000  -0.0244   0.0049   0.0395  -0.0830
 519 O_a :3d0   -0.0000   0.0000   0.0000   0.0060  -0.0010  -0.0231   0.0288
 520 O_a :3d1+   0.0039  -0.0181   0.0037  -0.0000   0.0000   0.0000   0.0000
 521 O_a :3d2+  -0.0000   0.0000   0.0000  -0.0214   0.0040  -0.1050  -0.0101
 536 O_a :4f3-   0.0000   0.0000   0.0000   0.0043  -0.0041   0.0042   0.0177
 540 O_a :4f1+  -0.0000  -0.0000  -0.0000  -0.0010  -0.0009   0.0001  -0.0109
 542 O_a :4f3+   0.0000  -0.0000  -0.0000   0.0044   0.0002   0.0188  -0.0021
 562 O_b :1s    -0.0000  -0.0000   0.0000  -0.0014   0.0024  -0.0156  -0.0203
 564 O_b :1s    -0.0000  -0.0000  -0.0000  -0.0081  -0.0145  -0.0064   0.0280
 565 O_b :1s    -0.0000   0.0000   0.0000  -0.1351   0.0468   0.0242   0.0218
 566 O_b :1s    -0.0000   0.0000  -0.0000  -0.2820   0.2571   0.4593   0.0682
 567 O_b :2px   -0.0000   0.0000  -0.0000   0.0010  -0.0048   0.0009   0.0135
 568 O_b :2py   -0.0000   0.0000   0.0000  -0.0018  -0.0038   0.0018   0.0109
 569 O_b :2pz   -0.2012  -0.6270  -0.1585   0.0000  -0.0000   0.0000   0.0000
 573 O_b :2px   -0.0000   0.0000  -0.0000   0.0063   0.0089   0.0152  -0.0093
 574 O_b :2py   -0.0000  -0.0000   0.0000  -0.0094   0.0062   0.0102   0.0349
 576 O_b :2px   -0.0000   0.0000  -0.0000   0.1019   0.0379   0.2083  -0.2010
 577 O_b :2py   -0.0000   0.0000   0.0000  -0.0686   0.0942   0.1301   0.1391
 578 O_b :2pz   -0.0200  -0.0666  -0.0174   0.0000  -0.0000   0.0000   0.0000
 579 O_b :2px   -0.0000   0.0000  -0.0000  -0.0165   0.0977   0.1947  -0.3971
 580 O_b :2py   -0.0000   0.0000   0.0000  -0.0534   0.0839   0.0903   0.2731
 581 O_b :2pz   -0.0088  -0.0325  -0.0133   0.0000  -0.0000   0.0000   0.0000
 592 O_b :3d2-  -0.0000   0.0000  -0.0000   0.0115   0.0072   0.0288  -0.0267
 593 O_b :3d1-  -0.0068  -0.0216  -0.0029   0.0000  -0.0000   0.0000   0.0000
 594 O_b :3d0    0.0000  -0.0000  -0.0000  -0.0016  -0.0082  -0.0122  -0.0097
 596 O_b :3d2+   0.0000  -0.0000  -0.0000   0.0028  -0.0042  -0.0060  -0.0215
 597 O_b :3d2-  -0.0000   0.0000  -0.0000   0.0373  -0.0002   0.0868  -0.0900
 598 O_b :3d1-  -0.0060  -0.0178  -0.0028  -0.0000  -0.0000   0.0000  -0.0000
 599 O_b :3d0   -0.0000  -0.0000  -0.0000   0.0012  -0.0243  -0.0318  -0.0268
 601 O_b :3d2+   0.0000  -0.0000  -0.0000   0.0251  -0.0231   0.0099  -0.0525
 622 O_b :4f3+  -0.0000   0.0000   0.0000  -0.0028  -0.0003  -0.0094   0.0165
 641 H_a :1s    -0.0000  -0.0000  -0.0000  -0.0285   0.0064  -0.0308   0.0117
 642 H_a :1s     0.0000   0.0000   0.0000   0.0007  -0.0014   0.0204   0.0021
 643 H_a :1s     0.0000   0.0000   0.0000  -0.4024  -0.0780   0.2327   0.3460
 644 H_a :1s    -0.0000   0.0000   0.0000  -2.8598  -2.4788   3.2906   5.0496
 645 H_a :1s     0.0000   0.0000   0.0000   1.3573   5.7616   3.1707  -4.6222
 649 H_a :2px   -0.0000  -0.0000  -0.0000  -0.0022   0.0028  -0.0133  -0.0077
 652 H_a :2px   -0.0000  -0.0000  -0.0000   0.0818  -0.0111   0.0578  -0.0421
 653 H_a :2py   -0.0000  -0.0000   0.0000   0.0301  -0.0438   0.1298   0.0087
 655 H_a :2px   -0.0000  -0.0000  -0.0000   0.3626   0.3117  -0.1561  -0.6115
 656 H_a :2py   -0.0000  -0.0000   0.0000  -0.0687  -0.1352  -0.3371  -0.5586
 668 H_a :3d2-   0.0000   0.0000   0.0000   0.0109  -0.0024  -0.0926  -0.0378
 670 H_a :3d0    0.0000   0.0000   0.0000  -0.0235  -0.0409   0.0365   0.0175
 672 H_a :3d2+   0.0000   0.0000   0.0000   0.0069   0.0241  -0.0673  -0.0250
 687 H_b :1s     0.0000   0.0000   0.0000  -0.0332   0.0046  -0.0370   0.0048
 688 H_b :1s    -0.0000  -0.0000  -0.0000   0.0040   0.0030   0.0120  -0.0081
 689 H_b :1s     0.0000  -0.0000  -0.0000  -0.3361   0.7280  -0.6081   0.5020
 690 H_b :1s     0.0000  -0.0000   0.0000  -0.7716   4.2436   0.7035  -0.0536
 691 H_b :1s     0.0000  -0.0000  -0.0000   0.4545  -4.4284   3.4208  -2.5859
 695 H_b :2px   -0.0000  -0.0000   0.0000   0.0018   0.0116   0.0010   0.0049
 698 H_b :2px    0.0000  -0.0000  -0.0000  -0.0858   0.0654  -0.2391   0.1778
 699 H_b :2py    0.0000  -0.0000   0.0000  -0.1214   0.0236  -0.0671   0.0219
 700 H_b :2pz    0.0080  -0.0012  -0.0116  -0.0000  -0.0000  -0.0000  -0.0000
 701 H_b :2px   -0.0000  -0.0000   0.0000  -0.4798   0.2359   0.4595   0.1656
 702 H_b :2py    0.0000  -0.0000  -0.0000   0.6082   0.2431  -0.4966  -0.1154
 703 H_b :2pz   -0.0121  -0.0034  -0.0140   0.0000   0.0000   0.0000   0.0000
 713 H_b :3d2+  -0.0000  -0.0000   0.0000  -0.0014   0.0024  -0.0024   0.0111
 714 H_b :3d2-   0.0000   0.0000   0.0000  -0.0061  -0.0309  -0.0518  -0.0324
 716 H_b :3d0    0.0000   0.0000  -0.0000  -0.0022   0.0519   0.0259  -0.0363
 718 H_b :3d2+  -0.0000   0.0000   0.0000  -0.0500  -0.0477   0.0177   0.0284
 733 H_c :1s     0.0000  -0.0000  -0.0000  -0.0002   0.0049  -0.0079   0.0181
 735 H_c :1s     0.0000   0.0000   0.0000  -0.2640   0.1718   0.0012  -0.4427
 736 H_c :1s     0.0000   0.0000   0.0000  -1.5924   0.8055   2.0665  -0.8616
 737 H_c :1s    -0.0000   0.0000  -0.0000   1.9715  -2.8843  -1.6108  -3.4498
 741 H_c :2px   -0.0000   0.0000  -0.0000  -0.0088   0.0028   0.0004  -0.0180
 744 H_c :2px    0.0000   0.0000  -0.0000  -0.1211   0.0269  -0.0013  -0.0647
 745 H_c :2py   -0.0000  -0.0000  -0.0000   0.0399   0.0356  -0.0012   0.0550
 746 H_c :2pz   -0.0124   0.0008   0.0143  -0.0000  -0.0000  -0.0000  -0.0000
[...]

@ Singlet linear response function in a.u.

@ A operator, symmetry, frequency:   XDIPLEN    1 -0.022625
@ B operator, symmetry, frequency:   ZDIPLEN    1  0.022625

@ Value of linear response -<<A;B>>(omega):      -0.000000000000

@ Singlet linear response function in a.u.

@ A operator, symmetry, frequency:   YDIPLEN    1 -0.022625
@ B operator, symmetry, frequency:   ZDIPLEN    1  0.022625

@ Value of linear response -<<A;B>>(omega):      -0.000000000000

@ Singlet linear response function in a.u.

@ A operator, symmetry, frequency:   ZDIPLEN    1 -0.022625
@ B operator, symmetry, frequency:   ZDIPLEN    1  0.022625

@ Value of linear response -<<A;B>>(omega):      47.339807192654

@ Singlet linear response function in a.u.

@ A operator, symmetry, frequency:   XDIPLEN    1 -0.045251
@ B operator, symmetry, frequency:   ZDIPLEN    1  0.045251

@ Value of linear response -<<A;B>>(omega):      -0.000000000000

@ Singlet linear response function in a.u.

@ A operator, symmetry, frequency:   YDIPLEN    1 -0.045251
@ B operator, symmetry, frequency:   ZDIPLEN    1  0.045251

@ Value of linear response -<<A;B>>(omega):      -0.000000000000

@ Singlet linear response function in a.u.

@ A operator, symmetry, frequency:   ZDIPLEN    1 -0.045251
@ B operator, symmetry, frequency:   ZDIPLEN    1  0.045251

@ Value of linear response -<<A;B>>(omega):      47.581114168665


  Results from quadratic response calculation
 --------------------------------------------

@ B-freq = 0.000000  C-freq = 0.000000     beta(X;X,X) =   -257.99811512
@ B-freq = 0.000000  C-freq = 0.000000     beta(Y;X,X) =    525.11558814
@ B-freq = 0.000000  C-freq = 0.000000     beta(Z;X,X) =     -0.00000000
@ B-freq = 0.022625  C-freq = 0.000000     beta(X;X,X) =   -265.96416578
@ B-freq = 0.022625  C-freq = 0.000000     beta(Y;X,X) =    540.65557467
@ B-freq = 0.022625  C-freq = 0.000000     beta(Z;X,X) =     -0.00000000
@ B-freq = 0.045251  C-freq = 0.000000     beta(X;X,X) =   -292.25466584
@ B-freq = 0.045251  C-freq = 0.000000     beta(Y;X,X) =    592.05370362
@ B-freq = 0.045251  C-freq = 0.000000     beta(Z;X,X) =     -0.00000000
@ B-freq = 0.000000  C-freq = 0.000000     beta(X;Y,X) = beta(Y,X,X)
@ B-freq = 0.000000  C-freq = 0.000000     beta(X;Y,X) =    525.11553444
@ B-freq = 0.000000  C-freq = 0.000000     beta(Y;Y,X) =   -689.78174853
@ B-freq = 0.000000  C-freq = 0.000000     beta(Z;Y,X) =      0.00000000
@ B-freq = 0.022625  C-freq = 0.000000     beta(X;Y,X) =    540.65551876
@ B-freq = 0.022625  C-freq = 0.000000     beta(Y;Y,X) =   -715.56349129
@ B-freq = 0.022625  C-freq = 0.000000     beta(Z;Y,X) =      0.00000000
@ B-freq = 0.045251  C-freq = 0.000000     beta(X;Y,X) =    592.05364046
@ B-freq = 0.045251  C-freq = 0.000000     beta(Y;Y,X) =   -801.73354950
@ B-freq = 0.045251  C-freq = 0.000000     beta(Z;Y,X) =      0.00000000
@ B-freq = 0.000000  C-freq = 0.000000     beta(X;Z,X) = beta(Z,X,X)
@ B-freq = 0.000000  C-freq = 0.000000     beta(Y;Z,X) = beta(Z,Y,X)
@ B-freq = 0.000000  C-freq = 0.000000     beta(X;Z,X) =     -0.00000000
@ B-freq = 0.000000  C-freq = 0.000000     beta(Y;Z,X) =      0.00000000
@ B-freq = 0.000000  C-freq = 0.000000     beta(Z;Z,X) =     19.89382918
@ B-freq = 0.022625  C-freq = 0.000000     beta(X;Z,X) =     -0.00000000
@ B-freq = 0.022625  C-freq = 0.000000     beta(Y;Z,X) =      0.00000000
@ B-freq = 0.022625  C-freq = 0.000000     beta(Z;Z,X) =     20.11618726
@ B-freq = 0.045251  C-freq = 0.000000     beta(X;Z,X) =     -0.00000000
@ B-freq = 0.045251  C-freq = 0.000000     beta(Y;Z,X) =      0.00000000
@ B-freq = 0.045251  C-freq = 0.000000     beta(Z;Z,X) =     20.81306509
@ B-freq = 0.000000  C-freq = 0.022625     beta(X;X,X) = beta(X,X,X)
@ B-freq = 0.000000  C-freq = 0.022625     beta(Y;X,X) = beta(Y,X,X)
@ B-freq = 0.000000  C-freq = 0.022625     beta(Z;X,X) = beta(Z,X,X)
@ B-freq = 0.022625  C-freq = 0.022625     beta(X;X,X) =   -283.07233788
@ B-freq = 0.022625  C-freq = 0.022625     beta(Y;X,X) =    577.10973943
@ B-freq = 0.022625  C-freq = 0.022625     beta(Z;X,X) =     -0.00000000
@ B-freq = 0.045251  C-freq = 0.022625     beta(X;X,X) =   -322.81923362
@ B-freq = 0.045251  C-freq = 0.022625     beta(Y;X,X) =    659.14249259
@ B-freq = 0.045251  C-freq = 0.022625     beta(Z;X,X) =     -0.00000000
@ B-freq = 0.000000  C-freq = 0.022625     beta(X;Y,X) =    537.86583296
@ B-freq = 0.000000  C-freq = 0.022625     beta(Y;Y,X) =   -709.42570906
@ B-freq = 0.000000  C-freq = 0.022625     beta(Z;Y,X) =      0.00000000
@ B-freq = 0.022625  C-freq = 0.022625     beta(X;Y,X) =    568.06698994
@ B-freq = 0.022625  C-freq = 0.022625     beta(Y;Y,X) =   -764.87327009
@ B-freq = 0.022625  C-freq = 0.022625     beta(Z;Y,X) =      0.00000000
@ B-freq = 0.045251  C-freq = 0.022625     beta(X;Y,X) =    641.40492926
@ B-freq = 0.045251  C-freq = 0.022625     beta(Y;Y,X) =   -896.17526977
@ B-freq = 0.045251  C-freq = 0.022625     beta(Z;Y,X) =      0.00000000
@ B-freq = 0.000000  C-freq = 0.022625     beta(X;Z,X) =     -0.00000000
@ B-freq = 0.000000  C-freq = 0.022625     beta(Y;Z,X) =      0.00000000
@ B-freq = 0.000000  C-freq = 0.022625     beta(Z;Z,X) =     20.19302670
@ B-freq = 0.022625  C-freq = 0.022625     beta(X;Z,X) =     -0.00000000
@ B-freq = 0.022625  C-freq = 0.022625     beta(Y;Z,X) =      0.00000000
@ B-freq = 0.022625  C-freq = 0.022625     beta(Z;Z,X) =     20.65348683
@ B-freq = 0.045251  C-freq = 0.022625     beta(X;Z,X) =     -0.00000000
@ B-freq = 0.045251  C-freq = 0.022625     beta(Y;Z,X) =      0.00000000
@ B-freq = 0.045251  C-freq = 0.022625     beta(Z;Z,X) =     21.63858307
@ B-freq = 0.000000  C-freq = 0.045251     beta(X;X,X) = beta(X,X,X)
@ B-freq = 0.000000  C-freq = 0.045251     beta(Y;X,X) = beta(Y,X,X)
@ B-freq = 0.000000  C-freq = 0.045251     beta(Z;X,X) = beta(Z,X,X)
@ B-freq = 0.022625  C-freq = 0.045251     beta(X;X,X) = beta(X,X,X)
@ B-freq = 0.022625  C-freq = 0.045251     beta(Y;X,X) = beta(Y,X,X)
@ B-freq = 0.022625  C-freq = 0.045251     beta(Z;X,X) = beta(Z,X,X)
@ B-freq = 0.045251  C-freq = 0.045251     beta(X;X,X) =   -386.45172666
@ B-freq = 0.045251  C-freq = 0.045251     beta(Y;X,X) =    795.26975478
@ B-freq = 0.045251  C-freq = 0.045251     beta(Z;X,X) =     -0.00000000
@ B-freq = 0.000000  C-freq = 0.045251     beta(X;Y,X) =    579.59771954
@ B-freq = 0.000000  C-freq = 0.045251     beta(Y;Y,X) =   -774.23646367
@ B-freq = 0.000000  C-freq = 0.045251     beta(Z;Y,X) =      0.00000000
@ B-freq = 0.022625  C-freq = 0.045251     beta(X;Y,X) =    630.96517601
@ B-freq = 0.022625  C-freq = 0.045251     beta(Y;Y,X) =   -873.07859694
@ B-freq = 0.022625  C-freq = 0.045251     beta(Z;Y,X) =      0.00000000
@ B-freq = 0.045251  C-freq = 0.045251     beta(X;Y,X) =    742.50908767
@ B-freq = 0.045251  C-freq = 0.045251     beta(Y;Y,X) =  -1084.15062771
@ B-freq = 0.045251  C-freq = 0.045251     beta(Z;Y,X) =      0.00000000
@ B-freq = 0.000000  C-freq = 0.045251     beta(X;Z,X) =     -0.00000000
@ B-freq = 0.000000  C-freq = 0.045251     beta(Y;Z,X) =      0.00000000
@ B-freq = 0.000000  C-freq = 0.045251     beta(Z;Z,X) =     21.14656838
@ B-freq = 0.022625  C-freq = 0.045251     beta(X;Z,X) =     -0.00000000
@ B-freq = 0.022625  C-freq = 0.045251     beta(Y;Z,X) =      0.00000000
@ B-freq = 0.022625  C-freq = 0.045251     beta(Z;Z,X) =     21.89886687
@ B-freq = 0.045251  C-freq = 0.045251     beta(X;Z,X) =     -0.00000000
@ B-freq = 0.045251  C-freq = 0.045251     beta(Y;Z,X) =      0.00000000
@ B-freq = 0.045251  C-freq = 0.045251     beta(Z;Z,X) =     23.27786474
@ B-freq = 0.000000  C-freq = 0.000000     beta(X;X,Y) = beta(Y,X,X)
@ B-freq = 0.000000  C-freq = 0.000000     beta(Y;X,Y) = beta(Y,Y,X)
@ B-freq = 0.000000  C-freq = 0.000000     beta(Z;X,Y) = beta(Z,Y,X)
@ B-freq = 0.022625  C-freq = 0.000000     beta(X;X,Y) = beta(X,Y,X)
@ B-freq = 0.022625  C-freq = 0.000000     beta(Y;X,Y) = beta(Y,Y,X)
@ B-freq = 0.022625  C-freq = 0.000000     beta(Z;X,Y) = beta(Z,Y,X)
@ B-freq = 0.045251  C-freq = 0.000000     beta(X;X,Y) = beta(X,Y,X)
@ B-freq = 0.045251  C-freq = 0.000000     beta(Y;X,Y) = beta(Y,Y,X)
@ B-freq = 0.045251  C-freq = 0.000000     beta(Z;X,Y) = beta(Z,Y,X)
@ B-freq = 0.000000  C-freq = 0.000000     beta(X;Y,Y) = beta(Y,Y,X)
@ B-freq = 0.000000  C-freq = 0.000000     beta(X;Y,Y) =   -689.78177522
@ B-freq = 0.000000  C-freq = 0.000000     beta(Y;Y,Y) =    402.74861242
@ B-freq = 0.000000  C-freq = 0.000000     beta(Z;Y,Y) =     -0.00000000
@ B-freq = 0.022625  C-freq = 0.000000     beta(X;Y,Y) =   -709.42573659
@ B-freq = 0.022625  C-freq = 0.000000     beta(Y;Y,Y) =    424.06412672
@ B-freq = 0.022625  C-freq = 0.000000     beta(Z;Y,Y) =     -0.00000000
@ B-freq = 0.045251  C-freq = 0.000000     beta(X;Y,Y) =   -774.23649392
@ B-freq = 0.045251  C-freq = 0.000000     beta(Y;Y,Y) =    496.15455458
@ B-freq = 0.045251  C-freq = 0.000000     beta(Z;Y,Y) =     -0.00000000
@ B-freq = 0.000000  C-freq = 0.000000     beta(X;Z,Y) = beta(Z,Y,X)
@ B-freq = 0.000000  C-freq = 0.000000     beta(Y;Z,Y) = beta(Z,Y,Y)
@ B-freq = 0.000000  C-freq = 0.000000     beta(X;Z,Y) =      0.00000000
@ B-freq = 0.000000  C-freq = 0.000000     beta(Y;Z,Y) =     -0.00000000
@ B-freq = 0.000000  C-freq = 0.000000     beta(Z;Z,Y) =    -25.53573780
@ B-freq = 0.022625  C-freq = 0.000000     beta(X;Z,Y) =      0.00000000
@ B-freq = 0.022625  C-freq = 0.000000     beta(Y;Z,Y) =     -0.00000000
@ B-freq = 0.022625  C-freq = 0.000000     beta(Z;Z,Y) =    -25.90464978
@ B-freq = 0.045251  C-freq = 0.000000     beta(X;Z,Y) =      0.00000000
@ B-freq = 0.045251  C-freq = 0.000000     beta(Y;Z,Y) =     -0.00000000
@ B-freq = 0.045251  C-freq = 0.000000     beta(Z;Z,Y) =    -27.07448781
@ B-freq = 0.000000  C-freq = 0.022625     beta(X;X,Y) = beta(X,Y,X)
@ B-freq = 0.000000  C-freq = 0.022625     beta(Y;X,Y) = beta(Y,Y,X)
@ B-freq = 0.000000  C-freq = 0.022625     beta(Z;X,Y) = beta(Z,Y,X)
@ B-freq = 0.022625  C-freq = 0.022625     beta(X;X,Y) = beta(X,Y,X)
@ B-freq = 0.022625  C-freq = 0.022625     beta(Y;X,Y) = beta(Y,Y,X)
@ B-freq = 0.022625  C-freq = 0.022625     beta(Z;X,Y) = beta(Z,Y,X)
@ B-freq = 0.045251  C-freq = 0.022625     beta(X;X,Y) = beta(X,Y,X)
@ B-freq = 0.045251  C-freq = 0.022625     beta(Y;X,Y) = beta(Y,Y,X)
@ B-freq = 0.045251  C-freq = 0.022625     beta(Z;X,Y) = beta(Z,Y,X)
@ B-freq = 0.000000  C-freq = 0.022625     beta(X;Y,Y) = beta(X,Y,Y)
@ B-freq = 0.000000  C-freq = 0.022625     beta(Y;Y,Y) = beta(Y,Y,Y)
@ B-freq = 0.000000  C-freq = 0.022625     beta(Z;Y,Y) = beta(Z,Y,Y)
@ B-freq = 0.022625  C-freq = 0.022625     beta(X;Y,Y) =   -744.90849635
@ B-freq = 0.022625  C-freq = 0.022625     beta(Y;Y,Y) =    470.67682520
@ B-freq = 0.022625  C-freq = 0.022625     beta(Z;Y,Y) =     -0.00000000
@ B-freq = 0.045251  C-freq = 0.022625     beta(X;Y,Y) =   -833.62819377
@ B-freq = 0.045251  C-freq = 0.022625     beta(Y;Y,Y) =    583.00556843
@ B-freq = 0.045251  C-freq = 0.022625     beta(Z;Y,Y) =     -0.00000000
@ B-freq = 0.000000  C-freq = 0.022625     beta(X;Z,Y) =      0.00000000
@ B-freq = 0.000000  C-freq = 0.022625     beta(Y;Z,Y) =     -0.00000000
@ B-freq = 0.000000  C-freq = 0.022625     beta(Z;Z,Y) =    -26.06268827
@ B-freq = 0.022625  C-freq = 0.022625     beta(X;Z,Y) =      0.00000000
@ B-freq = 0.022625  C-freq = 0.022625     beta(Y;Z,Y) =     -0.00000000
@ B-freq = 0.022625  C-freq = 0.022625     beta(Z;Z,Y) =    -26.83354644
@ B-freq = 0.045251  C-freq = 0.022625     beta(X;Z,Y) =      0.00000000
@ B-freq = 0.045251  C-freq = 0.022625     beta(Y;Z,Y) =     -0.00000000
@ B-freq = 0.045251  C-freq = 0.022625     beta(Z;Z,Y) =    -28.51276684
@ B-freq = 0.000000  C-freq = 0.045251     beta(X;X,Y) = beta(X,Y,X)
@ B-freq = 0.000000  C-freq = 0.045251     beta(Y;X,Y) = beta(Y,Y,X)
@ B-freq = 0.000000  C-freq = 0.045251     beta(Z;X,Y) = beta(Z,Y,X)
@ B-freq = 0.022625  C-freq = 0.045251     beta(X;X,Y) = beta(X,Y,X)
@ B-freq = 0.022625  C-freq = 0.045251     beta(Y;X,Y) = beta(Y,Y,X)
@ B-freq = 0.022625  C-freq = 0.045251     beta(Z;X,Y) = beta(Z,Y,X)
@ B-freq = 0.045251  C-freq = 0.045251     beta(X;X,Y) = beta(X,Y,X)
@ B-freq = 0.045251  C-freq = 0.045251     beta(Y;X,Y) = beta(Y,Y,X)
@ B-freq = 0.045251  C-freq = 0.045251     beta(Z;X,Y) = beta(Z,Y,X)
@ B-freq = 0.000000  C-freq = 0.045251     beta(X;Y,Y) = beta(X,Y,Y)
@ B-freq = 0.000000  C-freq = 0.045251     beta(Y;Y,Y) = beta(Y,Y,Y)
@ B-freq = 0.000000  C-freq = 0.045251     beta(Z;Y,Y) = beta(Z,Y,Y)
@ B-freq = 0.022625  C-freq = 0.045251     beta(X;Y,Y) = beta(X,Y,Y)
@ B-freq = 0.022625  C-freq = 0.045251     beta(Y;Y,Y) = beta(Y,Y,Y)
@ B-freq = 0.022625  C-freq = 0.045251     beta(Z;Y,Y) = beta(Z,Y,Y)
@ B-freq = 0.045251  C-freq = 0.045251     beta(X;Y,Y) =   -965.86103471
@ B-freq = 0.045251  C-freq = 0.045251     beta(Y;Y,Y) =    772.69696638
@ B-freq = 0.045251  C-freq = 0.045251     beta(Z;Y,Y) =     -0.00000000
@ B-freq = 0.000000  C-freq = 0.045251     beta(X;Z,Y) =      0.00000000
@ B-freq = 0.000000  C-freq = 0.045251     beta(Y;Z,Y) =     -0.00000000
@ B-freq = 0.000000  C-freq = 0.045251     beta(Z;Z,Y) =    -27.76449057
@ B-freq = 0.022625  C-freq = 0.045251     beta(X;Z,Y) =      0.00000000
@ B-freq = 0.022625  C-freq = 0.045251     beta(Y;Z,Y) =     -0.00000000
@ B-freq = 0.022625  C-freq = 0.045251     beta(Z;Z,Y) =    -29.05191185
@ B-freq = 0.045251  C-freq = 0.045251     beta(X;Z,Y) =      0.00000000
@ B-freq = 0.045251  C-freq = 0.045251     beta(Y;Z,Y) =     -0.00000000
@ B-freq = 0.045251  C-freq = 0.045251     beta(Z;Z,Y) =    -31.47271887
@ B-freq = 0.000000  C-freq = 0.000000     beta(X;X,Z) = beta(Z,X,X)
@ B-freq = 0.000000  C-freq = 0.000000     beta(Y;X,Z) = beta(Z,Y,X)
@ B-freq = 0.000000  C-freq = 0.000000     beta(Z;X,Z) = beta(Z,Z,X)
@ B-freq = 0.022625  C-freq = 0.000000     beta(X;X,Z) = beta(X,Z,X)
@ B-freq = 0.022625  C-freq = 0.000000     beta(Y;X,Z) = beta(Y,Z,X)
@ B-freq = 0.022625  C-freq = 0.000000     beta(Z;X,Z) = beta(Z,Z,X)
@ B-freq = 0.045251  C-freq = 0.000000     beta(X;X,Z) = beta(X,Z,X)
@ B-freq = 0.045251  C-freq = 0.000000     beta(Y;X,Z) = beta(Y,Z,X)
@ B-freq = 0.045251  C-freq = 0.000000     beta(Z;X,Z) = beta(Z,Z,X)
@ B-freq = 0.000000  C-freq = 0.000000     beta(X;Y,Z) = beta(Z,Y,X)
@ B-freq = 0.000000  C-freq = 0.000000     beta(Y;Y,Z) = beta(Z,Y,Y)
@ B-freq = 0.000000  C-freq = 0.000000     beta(Z;Y,Z) = beta(Z,Z,Y)
@ B-freq = 0.022625  C-freq = 0.000000     beta(X;Y,Z) = beta(X,Z,Y)
@ B-freq = 0.022625  C-freq = 0.000000     beta(Y;Y,Z) = beta(Y,Z,Y)
@ B-freq = 0.022625  C-freq = 0.000000     beta(Z;Y,Z) = beta(Z,Z,Y)
@ B-freq = 0.045251  C-freq = 0.000000     beta(X;Y,Z) = beta(X,Z,Y)
@ B-freq = 0.045251  C-freq = 0.000000     beta(Y;Y,Z) = beta(Y,Z,Y)
@ B-freq = 0.045251  C-freq = 0.000000     beta(Z;Y,Z) = beta(Z,Z,Y)
@ B-freq = 0.000000  C-freq = 0.000000     beta(X;Z,Z) = beta(Z,Z,X)
@ B-freq = 0.000000  C-freq = 0.000000     beta(Y;Z,Z) = beta(Z,Z,Y)
@ B-freq = 0.000000  C-freq = 0.000000     beta(X;Z,Z) =     19.89381786
@ B-freq = 0.000000  C-freq = 0.000000     beta(Y;Z,Z) =    -25.53571053
@ B-freq = 0.000000  C-freq = 0.000000     beta(Z;Z,Z) =     -0.00000000
@ B-freq = 0.022625  C-freq = 0.000000     beta(X;Z,Z) =     20.19301505
@ B-freq = 0.022625  C-freq = 0.000000     beta(Y;Z,Z) =    -26.06266018
@ B-freq = 0.022625  C-freq = 0.000000     beta(Z;Z,Z) =     -0.00000000
@ B-freq = 0.045251  C-freq = 0.000000     beta(X;Z,Z) =     21.14655567
@ B-freq = 0.045251  C-freq = 0.000000     beta(Y;Z,Z) =    -27.76445988
@ B-freq = 0.045251  C-freq = 0.000000     beta(Z;Z,Z) =     -0.00000000
@ B-freq = 0.000000  C-freq = 0.022625     beta(X;X,Z) = beta(X,Z,X)
@ B-freq = 0.000000  C-freq = 0.022625     beta(Y;X,Z) = beta(Y,Z,X)
@ B-freq = 0.000000  C-freq = 0.022625     beta(Z;X,Z) = beta(Z,Z,X)
@ B-freq = 0.022625  C-freq = 0.022625     beta(X;X,Z) = beta(X,Z,X)
@ B-freq = 0.022625  C-freq = 0.022625     beta(Y;X,Z) = beta(Y,Z,X)
@ B-freq = 0.022625  C-freq = 0.022625     beta(Z;X,Z) = beta(Z,Z,X)
@ B-freq = 0.045251  C-freq = 0.022625     beta(X;X,Z) = beta(X,Z,X)
@ B-freq = 0.045251  C-freq = 0.022625     beta(Y;X,Z) = beta(Y,Z,X)
@ B-freq = 0.045251  C-freq = 0.022625     beta(Z;X,Z) = beta(Z,Z,X)
@ B-freq = 0.000000  C-freq = 0.022625     beta(X;Y,Z) = beta(X,Z,Y)
@ B-freq = 0.000000  C-freq = 0.022625     beta(Y;Y,Z) = beta(Y,Z,Y)
@ B-freq = 0.000000  C-freq = 0.022625     beta(Z;Y,Z) = beta(Z,Z,Y)
@ B-freq = 0.022625  C-freq = 0.022625     beta(X;Y,Z) = beta(X,Z,Y)
@ B-freq = 0.022625  C-freq = 0.022625     beta(Y;Y,Z) = beta(Y,Z,Y)
@ B-freq = 0.022625  C-freq = 0.022625     beta(Z;Y,Z) = beta(Z,Z,Y)
@ B-freq = 0.045251  C-freq = 0.022625     beta(X;Y,Z) = beta(X,Z,Y)
@ B-freq = 0.045251  C-freq = 0.022625     beta(Y;Y,Z) = beta(Y,Z,Y)
@ B-freq = 0.045251  C-freq = 0.022625     beta(Z;Y,Z) = beta(Z,Z,Y)
@ B-freq = 0.000000  C-freq = 0.022625     beta(X;Z,Z) = beta(X,Z,Z)
@ B-freq = 0.000000  C-freq = 0.022625     beta(Y;Z,Z) = beta(Y,Z,Z)
@ B-freq = 0.000000  C-freq = 0.022625     beta(Z;Z,Z) = beta(Z,Z,Z)
@ B-freq = 0.022625  C-freq = 0.022625     beta(X;Z,Z) =     20.90694290
@ B-freq = 0.022625  C-freq = 0.022625     beta(Y;Z,Z) =    -27.35941351
@ B-freq = 0.022625  C-freq = 0.022625     beta(Z;Z,Z) =     -0.00000000
@ B-freq = 0.045251  C-freq = 0.022625     beta(X;Z,Z) =     22.41466414
@ B-freq = 0.045251  C-freq = 0.022625     beta(Y;Z,Z) =    -30.13966780
@ B-freq = 0.045251  C-freq = 0.022625     beta(Z;Z,Z) =     -0.00000000
@ B-freq = 0.000000  C-freq = 0.045251     beta(X;X,Z) = beta(X,Z,X)
@ B-freq = 0.000000  C-freq = 0.045251     beta(Y;X,Z) = beta(Y,Z,X)
@ B-freq = 0.000000  C-freq = 0.045251     beta(Z;X,Z) = beta(Z,Z,X)
@ B-freq = 0.022625  C-freq = 0.045251     beta(X;X,Z) = beta(X,Z,X)
@ B-freq = 0.022625  C-freq = 0.045251     beta(Y;X,Z) = beta(Y,Z,X)
@ B-freq = 0.022625  C-freq = 0.045251     beta(Z;X,Z) = beta(Z,Z,X)
@ B-freq = 0.045251  C-freq = 0.045251     beta(X;X,Z) = beta(X,Z,X)
@ B-freq = 0.045251  C-freq = 0.045251     beta(Y;X,Z) = beta(Y,Z,X)
@ B-freq = 0.045251  C-freq = 0.045251     beta(Z;X,Z) = beta(Z,Z,X)
@ B-freq = 0.000000  C-freq = 0.045251     beta(X;Y,Z) = beta(X,Z,Y)
@ B-freq = 0.000000  C-freq = 0.045251     beta(Y;Y,Z) = beta(Y,Z,Y)
@ B-freq = 0.000000  C-freq = 0.045251     beta(Z;Y,Z) = beta(Z,Z,Y)
@ B-freq = 0.022625  C-freq = 0.045251     beta(X;Y,Z) = beta(X,Z,Y)
@ B-freq = 0.022625  C-freq = 0.045251     beta(Y;Y,Z) = beta(Y,Z,Y)
@ B-freq = 0.022625  C-freq = 0.045251     beta(Z;Y,Z) = beta(Z,Z,Y)
@ B-freq = 0.045251  C-freq = 0.045251     beta(X;Y,Z) = beta(X,Z,Y)
@ B-freq = 0.045251  C-freq = 0.045251     beta(Y;Y,Z) = beta(Y,Z,Y)
@ B-freq = 0.045251  C-freq = 0.045251     beta(Z;Y,Z) = beta(Z,Z,Y)
@ B-freq = 0.000000  C-freq = 0.045251     beta(X;Z,Z) = beta(X,Z,Z)
@ B-freq = 0.000000  C-freq = 0.045251     beta(Y;Z,Z) = beta(Y,Z,Z)
@ B-freq = 0.000000  C-freq = 0.045251     beta(Z;Z,Z) = beta(Z,Z,Z)
@ B-freq = 0.022625  C-freq = 0.045251     beta(X;Z,Z) = beta(X,Z,Z)
@ B-freq = 0.022625  C-freq = 0.045251     beta(Y;Z,Z) = beta(Y,Z,Z)
@ B-freq = 0.022625  C-freq = 0.045251     beta(Z;Z,Z) = beta(Z,Z,Z)
@ B-freq = 0.045251  C-freq = 0.045251     beta(X;Z,Z) =     24.80638596
@ B-freq = 0.045251  C-freq = 0.045251     beta(Y;Z,Z) =    -34.74110907
@ B-freq = 0.045251  C-freq = 0.045251     beta(Z;Z,Z) =     -0.00000000

  Total CPU  time used in RESPONSE:   1 hour  34 minutes 47 seconds
  Total wall time used in RESPONSE:   1 hour  35 minutes 18 seconds


                   .-------------------------------------------.
                   | End of Dynamic Property Section (RESPONS) |
                   `-------------------------------------------'

  Total CPU  time used in DALTON:   1 hour  49 minutes 24 seconds
  Total wall time used in DALTON:   1 hour  50 minutes  5 seconds

 
     Date and time (Linux)  : Mon May  5 22:20:13 2025
     Host name              : xm048                                   
