

     ************************************************************************
     *************** Dalton - An Electronic Structure Program ***************
     ************************************************************************

    This is output from DALTON release Dalton2020.0 (2020)
         ( Web site: http://daltonprogram.org )

   ----------------------------------------------------------------------------

    NOTE:
     
    Dalton is an experimental code for the evaluation of molecular
    properties using (MC)SCF, DFT, CI, and CC wave functions.
    The authors accept no responsibility for the performance of
    the code or for the correctness of the results.
     
    The code (in whole or part) is provided under a licence and
    is not to be reproduced for further distribution without
    the written permission of the authors or their representatives.
     
    See the home page "http://daltonprogram.org" for further information.
     
    If results obtained with this code are published,
    the appropriate citations would be both of:
     
       K. Aidas, C. Angeli, K. L. Bak, V. Bakken, R. Bast,
       L. Boman, O. Christiansen, R. Cimiraglia, S. Coriani,
       P. Dahle, E. K. Dalskov, U. Ekstroem,
       T. Enevoldsen, J. J. Eriksen, P. Ettenhuber, B. Fernandez,
       L. Ferrighi, H. Fliegl, L. Frediani, K. Hald, A. Halkier,
       C. Haettig, H. Heiberg, T. Helgaker, A. C. Hennum,
       H. Hettema, E. Hjertenaes, S. Hoest, I.-M. Hoeyvik,
       M. F. Iozzi, B. Jansik, H. J. Aa. Jensen, D. Jonsson,
       P. Joergensen, J. Kauczor, S. Kirpekar,
       T. Kjaergaard, W. Klopper, S. Knecht, R. Kobayashi, H. Koch,
       J. Kongsted, A. Krapp, K. Kristensen, A. Ligabue,
       O. B. Lutnaes, J. I. Melo, K. V. Mikkelsen, R. H. Myhre,
       C. Neiss, C. B. Nielsen, P. Norman, J. Olsen,
       J. M. H. Olsen, A. Osted, M. J. Packer, F. Pawlowski,
       T. B. Pedersen, P. F. Provasi, S. Reine, Z. Rinkevicius,
       T. A. Ruden, K. Ruud, V. Rybkin, P. Salek, C. C. M. Samson,
       A. Sanchez de Meras, T. Saue, S. P. A. Sauer,
       B. Schimmelpfennig, K. Sneskov, A. H. Steindal,
       K. O. Sylvester-Hvid, P. R. Taylor, A. M. Teale,
       E. I. Tellgren, D. P. Tew, A. J. Thorvaldsen, L. Thoegersen,
       O. Vahtras, M. A. Watson, D. J. D. Wilson, M. Ziolkowski
       and H. Agren,
       "The Dalton quantum chemistry program system",
       WIREs Comput. Mol. Sci. 2014, 4:269–284 (doi: 10.1002/wcms.1172)
     
    and
     
       Dalton, a molecular electronic structure program,
       Release Dalton2020.0 (2020), see http://daltonprogram.org
   ----------------------------------------------------------------------------

    Authors in alphabetical order (Major contribution(s) in parenthesis):

  Kestutis Aidas,           Vilnius University,           Lithuania   (QM/MM)
  Celestino Angeli,         University of Ferrara,        Italy       (NEVPT2)
  Keld L. Bak,              UNI-C,                        Denmark     (AOSOPPA, non-adiabatic coupling, magnetic properties)
  Vebjoern Bakken,          University of Oslo,           Norway      (DALTON; geometry optimizer, symmetry detection)
  Radovan Bast,             UiT The Arctic U. of Norway,  Norway      (DALTON installation and execution frameworks)
  Pablo Baudin,             University of Valencia,       Spain       (Cholesky excitation energies)
  Linus Boman,              NTNU,                         Norway      (Cholesky decomposition and subsystems)
  Bruno N. Cabral Tenorio,  Technical Univ. of Denmark,   Denmark     (Lanczos-based CC methods)
  Ove Christiansen,         Aarhus University,            Denmark     (CC module)
  Renzo Cimiraglia,         University of Ferrara,        Italy       (NEVPT2)
  Sonia Coriani,            Technical Univ. of Denmark,   Denmark     (CC and RESPONS modules)
  Janusz Cukras,            University of Warsaw,         Poland      (MChD in RESPONS)
  Paal Dahle,               University of Oslo,           Norway      (Parallelization)
  Erik K. Dalskov,          UNI-C,                        Denmark     (SOPPA)
  Thomas Enevoldsen,        Univ. of Southern Denmark,    Denmark     (SOPPA)
  Janus J. Eriksen,         Aarhus University,            Denmark     (Polarizable embedding, TDA)
  Rasmus Faber,             Technical Univ. of Denmark,   Denmark     (Vib.avg. NMR w. SOPPA, parallel AO-SOPPA, CVS-CC and EOMCC)
  Tobias Fahleson,          KTH Stockholm,                Sweden      (Damped cubic response)
  Berta Fernandez,          U. of Santiago de Compostela, Spain       (Doublet spin, ESR in RESPONS)
  Lara Ferrighi,            Aarhus University,            Denmark     (PCM Cubic response)
  Heike Fliegl,             University of Oslo,           Norway      (CCSD(R12))
  Luca Frediani,            UiT The Arctic U. of Norway,  Norway      (PCM)
  Emmanuel Fromager,        Univ. Strasbourg,             France      (MC-srDFT)
  Bin Gao,                  UiT The Arctic U. of Norway,  Norway      (Gen1Int library)
  Andre S. P. Gomes,        CNRS/Universite de Lille,     France      (Frozen density embedding)
  Christof Haettig,         Ruhr-University Bochum,       Germany     (CC module)
  Kasper Hald,              Aarhus University,            Denmark     (CC module)
  Asger Halkier,            Aarhus University,            Denmark     (CC module)
  Frederik Beyer Hansen,    University of Copenhagen,     Denmark     (Parallel AO-SOPPA)
  Erik D. Hedegaard,        Univ. of Southern Denmark,    Denmark     (Polarizable embedding, QM/MM, and MC-srDFT)
  Hanne Heiberg,            University of Oslo,           Norway      (Geometry analysis, selected one-electron integrals)
  Trygve Helgaker,          University of Oslo,           Norway      (DALTON; ABACUS, ERI, DFT modules, London, and much more)
  Alf Christian Hennum,     University of Oslo,           Norway      (Parity violation)
  Hinne Hettema,            University of Auckland,       New Zealand (Quadratic response in RESPONS; SIRIUS supersymmetry)
  Eirik Hjertenaes,         NTNU,                         Norway      (Cholesky decomposition)
  Pi A. B. Haase,           University of Copenhagen,     Denmark     (Triplet AO-SOPPA)
  Maria Francesca Iozzi,    University of Oslo,           Norway      (RPA)
  Christoph Jacob           TU Braunschweig               Germany     (Frozen density embedding)
  Brano Jansik              Technical Univ. of Ostrava    Czech Rep.  (DFT cubic response)
  Hans Joergen Aa. Jensen,  Univ. of Southern Denmark,    Denmark     (DALTON; SIRIUS, RESPONS, ABACUS, MC-srDFT, and much more)
  Dan Jonsson,              UiT The Arctic U. of Norway,  Norway      (Cubic response in RESPONS module)
  Poul Joergensen,          Aarhus University,            Denmark     (RESPONS, ABACUS, and CC modules)
  Maciej Kaminski,          University of Warsaw,         Poland      (CPPh in RESPONS)
  Joanna Kauczor,           Linkoeping University,        Sweden      (Complex polarization propagator (CPP) module)
  Sheela Kirpekar,          Univ. of Southern Denmark,    Denmark     (Mass-velocity & Darwin integrals)
  Erik Kjellgren,           Univ. of Southern Denmark,    Denmark     (MC-srDFT)
  Wim Klopper,              KIT Karlsruhe,                Germany     (R12 code in CC, SIRIUS, and ABACUS modules)
  Stefan Knecht,            ETH Zurich,                   Switzerland (Parallel CI and MCSCF, MC-srDFT)
  Rika Kobayashi,           Australian National Univ.,    Australia   (DIIS in CC, London in MCSCF)
  Henrik Koch,              NTNU,                         Norway      (CC module, Cholesky decomposition)
  Jacob Kongsted,           Univ. of Southern Denmark,    Denmark     (Polarizable embedding, polarizable density embedding, QM/MM)
  Andrea Ligabue,           University of Modena,         Italy       (CTOCD, AOSOPPA)
  Nanna H. List             Univ. of Southern Denmark,    Denmark     (Polarizable embedding)
  Ola B. Lutnaes,           University of Oslo,           Norway      (DFT Hessian)
  Juan I. Melo,             University of Buenos Aires,   Argentina   (LRESC, Relativistic Effects on NMR Shieldings)
  Kurt V. Mikkelsen,        University of Copenhagen,     Denmark     (MC-SCRF and QM/MM)
  Rolf H. Myhre,            NTNU,                         Norway      (Subsystems and CC3)
  Christian Neiss,          Univ. Erlangen-Nuernberg,     Germany     (CCSD(R12))
  Christian B. Nielsen,     University of Copenhagen,     Denmark     (QM/MM)
  Patrick Norman,           KTH Stockholm,                Sweden      (Cubic response and complex frequency response in RESPONS)
  Jeppe Olsen,              Aarhus University,            Denmark     (SIRIUS CI/density modules)
  Jogvan Magnus H. Olsen,   Aarhus University,            Denmark     (Polarizable embedding and polarizable density embedding)
  Anders Osted,             Copenhagen University,        Denmark     (QM/MM)
  Martin J. Packer,         University of Sheffield,      UK          (SOPPA)
  Filip Pawlowski,          Kazimierz Wielki University,  Poland      (CC3)
  Morten N. Pedersen,       Univ. of Southern Denmark,    Denmark     (Polarizable embedding)
  Thomas B. Pedersen,       University of Oslo,           Norway      (Cholesky decomposition)
  Patricio F. Provasi,      University of Northeastern,   Argentina   (Analysis of coupling constants in localized orbitals)
  Peter Reinholdt,          Univ. of Southern Denmark,    Denmark     (Polarizable embedding and polarizable density embedding)
  Zilvinas Rinkevicius,     KTH Stockholm,                Sweden      (open-shell DFT, ESR)
  Elias Rudberg,            KTH Stockholm,                Sweden      (DFT grid and basis info)
  Torgeir A. Ruden,         University of Oslo,           Norway      (Numerical derivatives in ABACUS)
  Kenneth Ruud,             UiT The Arctic U. of Norway,  Norway      (DALTON; ABACUS magnetic properties and much more)
  Pawel Salek,              KTH Stockholm,                Sweden      (DALTON; DFT code)
  Claire C. M. Samson       University of Karlsruhe       Germany     (Boys localization, r12 integrals in ERI)
  Alfredo Sanchez de Meras, University of Valencia,       Spain       (CC module, Cholesky decomposition)
  Trond Saue,               Paul Sabatier University,     France      (direct Fock matrix construction)
  Stephan P. A. Sauer,      University of Copenhagen,     Denmark     (SOPPA(CCSD), SOPPA prop., AOSOPPA, vibrational g-factors)
  Bernd Schimmelpfennig,    Forschungszentrum Karlsruhe,  Germany     (AMFI module)
  Anna K. Schnack-Petersen, University of Copenhagen,     Denmark     (RPA(D) and HRPA(D) properties in AOSOPPA)
  Kristian Sneskov,         Aarhus University,            Denmark     (Polarizable embedding, QM/MM)
  Arnfinn H. Steindal,      UiT The Arctic U. of Norway,  Norway      (parallel QM/MM, polarizable embedding)
  Casper Steinmann,         Aalborg University,           Denmark     (QFIT, polarizable embedding)
  K. O. Sylvester-Hvid,     University of Copenhagen,     Denmark     (MC-SCRF)
  Peter R. Taylor,          VLSCI/Univ. of Melbourne,     Australia   (Symmetry handling ABACUS, integral transformation)
  Andrew M. Teale,          University of Nottingham,     England     (DFT-AC, DFT-D)
  David P. Tew,             University of Bristol,        England     (CCSD(R12))
  Julien Toulouse,          Sorbonne Univ.,               France      (MC-srDFT)
  Olav Vahtras,             KTH Stockholm,                Sweden      (Triplet response, spin-orbit, ESR, TDDFT, open-shell DFT)
  Lucas Visscher,           Vrije Universiteit Amsterdam, Netherlands (Frozen density embedding)
  David J. Wilson,          La Trobe University,          Australia   (DFT Hessian and DFT magnetizabilities)
  Hans Agren,               KTH Stockholm,                Sweden      (SIRIUS module, RESPONS, MC-SCRF solvation)
 --------------------------------------------------------------------------------

     Date and time (Linux)  : Mon May  5 22:59:27 2025
     Host name              : xm048                                   

 * Work memory size             :  1310720000 =  9.766 gigabytes.

 * Directories for basis set searches:
   1) /gpfs/projects/rjh/adrian/summer2025/beta_projects/raw_data/NLO/dalton/hf/n2/dipole
   2) /gpfs/projects/rjh/adrian/dalton/build/basis


Compilation information
-----------------------

 Who compiled             | ahurtado
 Host                     | milan2
 System                   | Linux-5.14.0-427.42.1.el9_4.x86_64
 CMake generator          | Unix Makefiles
 Processor                | x86_64
 64-bit integers          | OFF
 MPI                      | ON
 Fortran compiler         | /gpfs/software/openmpi/milan/gcc13.2/4.1.6/bin/mpi
                          | f90
 Fortran compiler version | GNU Fortran (GCC) 13.2.0
 C compiler               | /gpfs/software/openmpi/milan/gcc13.2/4.1.6/bin/mpi
                          | cc
 C compiler version       | gcc (GCC) 13.2.0
 C++ compiler             | /gpfs/software/openmpi/milan/gcc13.2/4.1.6/bin/mpi
                          | cxx
 C++ compiler version     | unknown
 BLAS                     | /gpfs/software/intel/oneAPI/2024_2/mkl/2024.2/lib/
                          | intel64/libmkl_gf_lp64.so;/gpfs/software/intel/one
                          | API/2024_2/mkl/2024.2/lib/intel64/libmkl_sequentia
                          | l.so;/gpfs/software/intel/oneAPI/2024_2/mkl/2024.2
                          | /lib/intel64/libmkl_core.so;/usr/lib64/libpthread.
                          | a;/usr/lib64/libm.so
 LAPACK                   | /gpfs/software/intel/oneAPI/2024_2/mkl/2024.2/lib/
                          | intel64/libmkl_lapack95_lp64.a;/gpfs/software/inte
                          | l/oneAPI/2024_2/mkl/2024.2/lib/intel64/libmkl_gf_l
                          | p64.so
 Static linking           | OFF
 Last Git revision        | 66052b3af5ea7225e31178bf9a8b031913c72190
 Git branch               | (HEAD detached at Dalton2020.0)
 Configuration time       | 2025-04-10 16:02:31.569498

 * MPI parallel run using 96 processes.


   Content of the .dal input file
 ----------------------------------

**DALTON INPUT
.RUN RESPONSE
.DIRECT
**WAVE FUNCTIONS
.HF
**PROPERTIES
**RESPONSE
*QUADRA
.DIPLEN
.FREQUENCIES
3
0.0 0.022625375 0.04525075
**END OF DALTON INPUT


   Content of the .mol file
 ----------------------------

BASIS
d-aug-cc-pVQZ
blah
blah
Atomtype=4 Angstrom Charge=0 Nosymmetry
Charge=6 Atoms=4
C_a -0.9513250019573374 2.472788001948107 0.0
C_b -1.1314199984836448 1.1161090020327755 0.0
C_c 0.0 0.2238209994040954 0.0
C_d -0.0798650015824042 -1.1280989987284662 0.0
Charge=7 Atoms=2
N_a -1.934118997859812 3.4171439993377533 0.0
N_b 1.1226509976338603 -1.94442499920976 0.0
Charge=8 Atoms=2
O_a 2.226269999299899 -1.3908260009705062 0.0
O_b 0.9410479995185342 -3.168973000544804 0.0
Charge=1 Atoms=6
H_a 0.06842399978392295 2.877394997480202 0.0
H_b -2.1457999999960804 0.6981740011031261 0.0
H_c -2.9099809998487105 3.151718997670657 0.0
H_d -1.7094249989359582 4.400491001300694 0.0
H_e 1.0088069981771246 0.6562650022629831 0.0
H_f -0.9946379978975137 -1.7224080019592434 0.0


       *******************************************************************
       *********** Output from DALTON general input processing ***********
       *******************************************************************

 --------------------------------------------------------------------------------
   Overall default print level:    0
   Print level for DALTON.STAT:    1

    Parallel calculation using MPI
    AO-direct calculation (in sections where implemented)
    HERMIT 1- and 2-electron integral sections will be executed
    "Old" integral transformation used (limited to max 255 basis functions)
    Wave function sections will be executed (SIRIUS module)
    Dynamic molecular response properties section will be executed (RESPONSE module)
 --------------------------------------------------------------------------------


   ****************************************************************************
   *************** Output of molecule and basis set information ***************
   ****************************************************************************


    The two title cards from your ".mol" input:
    ------------------------------------------------------------------------
 1: blah                                                                    
 2: blah                                                                    
    ------------------------------------------------------------------------

  Coordinates are entered in Angstrom and converted to atomic units.
          - Conversion factor : 1 bohr = 0.52917721 A

  Atomic type no.    1
  --------------------
  Nuclear charge:   6.00000
  Number of symmetry independent centers:    4
  Number of basis sets to read;    2
  Basis set file used for this atomic type with Z =   6 :
     "/gpfs/projects/rjh/adrian/dalton/build/basis/aug-cc-pVQZ"

  Atomic type no.    2
  --------------------
  Nuclear charge:   7.00000
  Number of symmetry independent centers:    2
  Number of basis sets to read;    2
  Basis set file used for this atomic type with Z =   7 :
     "/gpfs/projects/rjh/adrian/dalton/build/basis/aug-cc-pVQZ"

  Atomic type no.    3
  --------------------
  Nuclear charge:   8.00000
  Number of symmetry independent centers:    2
  Number of basis sets to read;    2
  Basis set file used for this atomic type with Z =   8 :
     "/gpfs/projects/rjh/adrian/dalton/build/basis/aug-cc-pVQZ"

  Atomic type no.    4
  --------------------
  Nuclear charge:   1.00000
  Number of symmetry independent centers:    6
  Number of basis sets to read;    2
  Basis set file used for this atomic type with Z =   1 :
     "/gpfs/projects/rjh/adrian/dalton/build/basis/aug-cc-pVQZ"


                         SYMGRP: Point group information
                         -------------------------------

@    Point group: C1 


                                 Isotopic Masses
                                 ---------------

                           C_a        12.000000
                           C_b        12.000000
                           C_c        12.000000
                           C_d        12.000000
                           N_a        14.003074
                           N_b        14.003074
                           O_a        15.994915
                           O_b        15.994915
                           H_a         1.007825
                           H_b         1.007825
                           H_c         1.007825
                           H_d         1.007825
                           H_e         1.007825
                           H_f         1.007825

                       Total mass:   114.042928 amu
                       Natural abundance:  94.425 %

 Center-of-mass coordinates (a.u.):    0.109558   -0.164961    0.000000
 Center-of-mass coordinates (Angs):    0.057976   -0.087294    0.000000


  Atoms and basis sets
  --------------------

  Number of atom types :    4
  Total number of atoms:   14

  Basis set used is "d-aug-cc-pVQZ" from the basis set library.

  label    atoms   charge   prim   cont     basis
  ----------------------------------------------------------------------
  C_          4    6.0000   118   105      [14s8p5d4f3g|7s6p5d4f3g]                           
  N_          2    7.0000   118   105      [14s8p5d4f3g|7s6p5d4f3g]                           
  O_          2    8.0000   118   105      [14s8p5d4f3g|7s6p5d4f3g]                           
  H_          6    1.0000    64    62      [8s5p4d3f|6s5p4d3f]                                
  ----------------------------------------------------------------------
  total:     14   60.0000  1328  1212
  ----------------------------------------------------------------------
  Spherical harmonic basis used.

  Threshold for neglecting AO integrals:  1.00D-12


   Interatomic separations (in Angstrom):
   --------------------------------------

            C_a         C_b         C_c         C_d         N_a         N_b   
            ------      ------      ------      ------      ------      ------
 C_a   :    0.000000
 C_b   :    1.368580    0.000000
 C_c   :    2.441899    1.440933    0.000000
 C_d   :    3.704839    2.478354    1.354277    0.000000
 N_a   :    1.362972    2.437024    3.733380    4.908920    0.000000
 N_b   :    4.879872    3.801014    2.441646    1.453421    6.171731    0.000000
 O_a   :    5.002462    4.190323    2.750157    2.321052    6.358098    1.234685
 O_b   :    5.950676    4.759942    3.520884    2.281979    7.186343    1.237941
 H_a   :    1.097085    2.131139    2.654456    4.008238    2.074008    4.935721
 H_b   :    2.139165    1.097104    2.197605    2.757419    2.727198    4.203106
 H_c   :    2.072988    2.703144    4.128023    5.130926    1.011315    6.498677
 H_d   :    2.071414    3.334855    4.512949    5.763746    1.008692    6.948281
 H_e   :    2.672428    2.189070    1.097588    2.090254    4.035253    2.603181
 H_f   :    4.195420    2.841811    2.185661    1.090877    5.224712    2.128897

            O_a         O_b         H_a         H_b         H_c         H_d   
            ------      ------      ------      ------      ------      ------
 O_a   :    0.000000
 O_b   :    2.193992    0.000000
 H_a   :    4.782678    6.109013    0.000000
 H_b   :    4.845505    4.948076    3.106733    0.000000
 H_c   :    6.856806    7.401457    2.991012    2.569797    0.000000
 H_d   :    7.002075    8.020087    2.341061    3.727945    1.732272    0.000000
 H_e   :    2.381764    3.825838    2.411999    3.154885    4.645879    4.626879
 H_f   :    3.237931    2.416491    4.721047    2.680371    5.236951    6.164480

            H_e         H_f   
            ------      ------
 H_e   :    0.000000
 H_f   :    3.109964    0.000000


  Max    interatomic separation is    8.0201 Angstrom (   15.1558 Bohr)
  between atoms   12 and    8, "H_d   " and "O_b   ".

  Min HX interatomic separation is    1.0087 Angstrom (    1.9062 Bohr)

  Min YX interatomic separation is    1.2347 Angstrom (    2.3332 Bohr)


  Bond distances (Angstrom):
  --------------------------

                  atom 1     atom 2       distance
                  ------     ------       --------
  bond distance:  C_b        C_a          1.368580
  bond distance:  C_c        C_b          1.440933
  bond distance:  C_d        C_c          1.354277
  bond distance:  N_a        C_a          1.362972
  bond distance:  N_b        C_d          1.453421
  bond distance:  O_a        N_b          1.234685
  bond distance:  O_b        N_b          1.237941
  bond distance:  H_a        C_a          1.097085
  bond distance:  H_b        C_b          1.097104
  bond distance:  H_c        N_a          1.011315
  bond distance:  H_d        N_a          1.008692
  bond distance:  H_e        C_c          1.097588
  bond distance:  H_f        C_d          1.090877


  Bond angles (degrees):
  ----------------------

                  atom 1     atom 2     atom 3         angle
                  ------     ------     ------         -----
  bond angle:     C_b        C_a        N_a          126.296
  bond angle:     C_b        C_a        H_a          119.203
  bond angle:     N_a        C_a        H_a          114.501
  bond angle:     C_a        C_b        C_c          120.699
  bond angle:     C_a        C_b        H_b          119.954
  bond angle:     C_c        C_b        H_b          119.347
  bond angle:     C_b        C_c        C_d          124.880
  bond angle:     C_b        C_c        H_e          118.536
  bond angle:     C_d        C_c        H_e          116.584
  bond angle:     C_c        C_d        N_b          120.790
  bond angle:     C_c        C_d        H_f          126.392
  bond angle:     N_b        C_d        H_f          112.818
  bond angle:     C_a        N_a        H_c          120.927
  bond angle:     C_a        N_a        H_d          120.986
  bond angle:     H_c        N_a        H_d          118.087
  bond angle:     C_d        N_b        O_a          119.190
  bond angle:     C_d        N_b        O_b          115.735
  bond angle:     O_a        N_b        O_b          125.075




 Principal moments of inertia (u*A**2) and principal axes
 --------------------------------------------------------

   IA      53.169315         -0.485707    0.874122    0.000000
   IB     707.500907          0.874122    0.485707    0.000000
   IC     760.670221          0.000000    0.000000    1.000000


 Rotational constants
 --------------------

@    The molecule is planar.

               A                   B                   C

           9505.0879            714.3157            664.3865 MHz
            0.317056            0.023827            0.022162 cm-1


@  Nuclear repulsion energy :  334.724575361275 Hartree


                     .---------------------------------------.
                     | Starting in Integral Section (HERMIT) |
                     `---------------------------------------'



 ***************************************************************************************
 ****************** Output from **INTEGRALS input processing (HERMIT) ******************
 ***************************************************************************************


 - Using defaults, no **INTEGRALS input found

 Default print level:        1

 Calculation of one-electron Hamiltonian integrals.

 Center of mass  (bohr):      0.109558073324     -0.164960834262      0.000000000000
 Operator center (bohr):      0.000000000000      0.000000000000      0.000000000000
 Gauge origin    (bohr):      0.000000000000      0.000000000000      0.000000000000
 Dipole origin   (bohr):      0.000000000000      0.000000000000      0.000000000000


     ************************************************************************
     ************************** Output from HERINT **************************
     ************************************************************************



                      Nuclear contribution to dipole moments
                      --------------------------------------

                 au               Debye          C m (/(10**-30)

      x     -0.00000949        -0.00002412        -0.00008046
      y     -0.00001698        -0.00004316        -0.00014396
      z      0.00000000         0.00000000         0.00000000


  Time used in ONEDRV     is       1.86 seconds
  Time used in HUCKEL     is       0.56 seconds
  Time used in OVERLAP    is       0.32 seconds
  Time used in POPOVLP    is       0.63 seconds
  Time used in R2         is       0.41 seconds
  Time used in R4         is       0.52 seconds
  Time used in DIPLEN     is       0.64 seconds
  Time used in QUADRUP    is       1.33 seconds
  Time used in KINENE     is       0.53 seconds
  Time used in GABGEN     is      18.32 seconds
  Total CPU  time used in HERMIT:  25.11 seconds
  Total wall time used in HERMIT:  26.27 seconds


                        .----------------------------------.
                        | End of Integral Section (HERMIT) |
                        `----------------------------------'



                   .--------------------------------------------.
                   | Starting in Wave Function Section (SIRIUS) |
                   `--------------------------------------------'



@ Primary orbitals are deleted during canonical orthonormalization
@   because of detected numerical linear dependence or too large coefficients.
@ Eigenvalue threshold for num. lin. dep. =  1.00D-06

@  38 MO components are deleted in symmetry    1
 Overlap eigenvalues of the deleted orbitals:
  9.64D-07  8.12D-07  7.36D-07  7.10D-07  5.97D-07
  5.64D-07  5.45D-07  4.49D-07  4.36D-07  4.32D-07
  3.50D-07  3.40D-07  2.76D-07  2.32D-07  2.25D-07
  2.07D-07  1.98D-07  1.94D-07  1.76D-07  1.32D-07
  1.25D-07  1.22D-07  1.07D-07  1.02D-07  9.00D-08
  8.44D-08  6.85D-08  5.85D-08  5.40D-08  5.15D-08
  3.51D-08  2.60D-08  1.97D-08  1.73D-08  1.35D-08
  1.17D-08  1.07D-08  9.59D-09

 Max MO coeff. of last deleted MO & limit:  3.05D+02  1.00D+03

WARNING: Orbitals have been deleted because of numerical
   linear dependence although not requested in input.

 *** Output from Huckel module :

     Using EWMO model:          T
     Using EHT  model:          F
     Number of Huckel orbitals each symmetry:   46

 EWMO - Energy Weighted Maximum Overlap - is a Huckel type method,
        which normally is better than Extended Huckel Theory.
 Reference: Linderberg and Ohrn, Propagators in Quantum Chemistry (Wiley, 1973)

 Huckel EWMO eigenvalues for symmetry :  1
          -20.684751     -20.683464     -15.677079     -15.675022     -11.358566
          -11.354330     -11.347452     -11.345627      -1.965416      -1.769414
           -1.564904      -1.441062      -1.240847      -1.090666      -0.954916
           -0.860417      -0.851561      -0.791724      -0.699974      -0.689880
           -0.682320      -0.610468      -0.585840      -0.546268      -0.542391
           -0.513372      -0.505950      -0.489927      -0.425523      -0.408863
           -0.331558      -0.248171      -0.229244      -0.205164      -0.202046
           -0.190287      -0.165166      -0.142442      -0.136167      -0.129559
           -0.124923      -0.124039      -0.102981      -0.097133      -0.088128
           -0.081995

 **********************************************************************
 *SIRIUS* a direct, restricted step, second order MCSCF program       *
 **********************************************************************

 
     Date and time (Linux)  : Mon May  5 23:01:24 2025
     Host name              : xm048                                   

 Title lines from ".mol" input file:
     blah                                                                    
     blah                                                                    

 Print level on unit LUPRI =   2 is   0
 Print level on unit LUW4  =   2 is   5

@    Restricted, closed shell Hartree-Fock calculation.

@    Time-dependent Hartree-Fock calculation (random phase approximation).
 Fock matrices are calculated directly and in parallel without use of integrals on disk.

 Initial molecular orbitals are obtained according to
 ".MOSTART EWMO  " input option

     Wave function specification
     ============================
@    Wave function type        --- HF ---
@    Number of closed shell electrons          60
@    Number of electrons in active shells       0
@    Total charge of the molecule               0

@    Spin multiplicity and 2 M_S                1         0
@    Total number of symmetries                 1 (point group: C1 )
@    Reference state symmetry                   1 (irrep name : A  )

     Orbital specifications
     ======================
@    Abelian symmetry species          All |    1
@                                          |  A  
                                       --- |  ---
@    Occupied SCF orbitals              30 |   30
@    Secondary orbitals               1144 | 1144
@    Total number of orbitals         1174 | 1174
@    Number of basis functions        1212 | 1212

     Optimization information
     ========================
@    Number of configurations                 1
@    Number of orbital rotations          34320
     ------------------------------------------
@    Total number of variables            34321

     Maximum number of Fock   iterations      0
     Maximum number of DIIS   iterations     60
     Maximum number of QC-SCF iterations     60
     Threshold for SCF convergence     1.00D-05

    INFORMATION: Switched to "new" integral transformation (from 1988 ;-) )
    because more than 255 basis functions.


 ***********************************************
 ***** DIIS acceleration of SCF iterations *****
 ***********************************************

 C1-DIIS algorithm; max error vectors =    8

 Iter      Total energy        Error norm    Delta(E)  DIIS dim.
 -----------------------------------------------------------------------------
   1  Screening settings (-IFTHRS, JTDIIS, DIFDEN, times)  -10    1    T  1.73D+02  1.75D+02
@  1    -411.794312996        5.69853D+00   -4.12D+02    1
      Virial theorem: -V/T =      2.002842
@    MULPOP   C_a     1.30; C_b     0.05; C_c     0.26; C_d     0.84; N_a    -1.27; N_b     4.54; O_a    -3.11; O_b    -3.41; H_a     0.19; H_b     0.07; 
@             H_c     0.32; H_d     0.05; H_e     0.13; H_f     0.04; 
   1  Level shift: doubly occupied orbital energies shifted by -2.00D-01
 -----------------------------------------------------------------------------
   2  Screening settings (-IFTHRS, JTDIIS, DIFDEN, times)  -10    2    T  1.76D+02  1.77D+02
@  2    -413.223056223        2.90395D+00   -1.43D+00    2
      Virial theorem: -V/T =      2.002225
@    MULPOP   C_a     0.59; C_b    -0.34; C_c    -0.06; C_d    -0.14; N_a    -0.91; N_b     1.40; O_a    -0.97; O_b    -1.01; H_a     0.33; H_b     0.16; 
@             H_c     0.36; H_d     0.18; H_e     0.25; H_f     0.16; 
   2  Level shift: doubly occupied orbital energies shifted by -2.00D-01
 -----------------------------------------------------------------------------
   3  Screening settings (-IFTHRS, JTDIIS, DIFDEN, times)  -10    3    T  1.72D+02  1.73D+02
@  3    -413.585473452        5.14362D-01   -3.62D-01    3
      Virial theorem: -V/T =      2.001164
@    MULPOP   C_a     0.64; C_b    -0.26; C_c     0.11; C_d    -0.00; N_a    -0.74; N_b     1.95; O_a    -1.19; O_b    -1.39; H_a     0.22; H_b     0.07; 
@             H_c     0.29; H_d     0.11; H_e     0.13; H_f     0.06; 
   3  Level shift: doubly occupied orbital energies shifted by -5.00D-02
 -----------------------------------------------------------------------------
   4  Screening settings (-IFTHRS, JTDIIS, DIFDEN, times)  -10    4    T  1.72D+02  1.73D+02
@  4    -413.607861416        1.96671D-01   -2.24D-02    4
      Virial theorem: -V/T =      2.002836
@    MULPOP   C_a     0.68; C_b    -0.22; C_c     0.23; C_d    -0.01; N_a    -0.63; N_b     1.93; O_a    -1.20; O_b    -1.38; H_a     0.17; H_b    -0.00; 
@             H_c     0.25; H_d     0.07; H_e     0.08; H_f     0.05; 
   4  Level shift: doubly occupied orbital energies shifted by -2.50D-02
 -----------------------------------------------------------------------------
   5  Screening settings (-IFTHRS, JTDIIS, DIFDEN, times)  -10    5    T  1.70D+02  1.71D+02
@  5    -413.612094449        7.83431D-02   -4.23D-03    5
      Virial theorem: -V/T =      2.002282
@    MULPOP   C_a     0.64; C_b    -0.23; C_c     0.20; C_d    -0.00; N_a    -0.64; N_b     1.96; O_a    -1.20; O_b    -1.40; H_a     0.18; H_b     0.01; 
@             H_c     0.25; H_d     0.08; H_e     0.10; H_f     0.05; 
   5  Level shift: doubly occupied orbital energies shifted by -1.25D-02
 -----------------------------------------------------------------------------
   6  Screening settings (-IFTHRS, JTDIIS, DIFDEN, times)  -14    6    F  1.75D+02  1.77D+02
@  6    -413.613002120        3.02844D-02   -9.08D-04    6
      Virial theorem: -V/T =      2.002153
@    MULPOP   C_a     0.64; C_b    -0.23; C_c     0.21; C_d    -0.01; N_a    -0.64; N_b     1.95; O_a    -1.19; O_b    -1.39; H_a     0.18; H_b     0.01; 
@             H_c     0.25; H_d     0.08; H_e     0.10; H_f     0.05; 
 -----------------------------------------------------------------------------
   7  Screening settings (-IFTHRS, JTDIIS, DIFDEN, times)  -14    7    T  1.75D+02  1.76D+02
@  7    -413.613188761        1.51658D-02   -1.87D-04    7
      Virial theorem: -V/T =      2.002213
@    MULPOP   C_a     0.64; C_b    -0.23; C_c     0.21; C_d    -0.01; N_a    -0.64; N_b     1.95; O_a    -1.19; O_b    -1.39; H_a     0.18; H_b     0.01; 
@             H_c     0.25; H_d     0.08; H_e     0.10; H_f     0.05; 
 -----------------------------------------------------------------------------
   8  Screening settings (-IFTHRS, JTDIIS, DIFDEN, times)  -14    8    T  1.73D+02  1.75D+02
@  8    -413.613222957        6.11619D-03   -3.42D-05    8
      Virial theorem: -V/T =      2.002199
@    MULPOP   C_a     0.64; C_b    -0.23; C_c     0.21; C_d    -0.02; N_a    -0.64; N_b     1.95; O_a    -1.19; O_b    -1.39; H_a     0.18; H_b     0.01; 
@             H_c     0.25; H_d     0.08; H_e     0.10; H_f     0.05; 
 -----------------------------------------------------------------------------
   9  Screening settings (-IFTHRS, JTDIIS, DIFDEN, times)  -14    9    T  1.74D+02  1.75D+02
@  9    -413.613228301        1.92616D-03   -5.34D-06    8
      Virial theorem: -V/T =      2.002188
@    MULPOP   C_a     0.64; C_b    -0.23; C_c     0.21; C_d    -0.02; N_a    -0.64; N_b     1.95; O_a    -1.19; O_b    -1.39; H_a     0.18; H_b     0.01; 
@             H_c     0.25; H_d     0.08; H_e     0.10; H_f     0.06; 
 -----------------------------------------------------------------------------
  10  Screening settings (-IFTHRS, JTDIIS, DIFDEN, times)  -14   10    T  1.73D+02  1.74D+02
@ 10    -413.613229044        8.52602D-04   -7.43D-07    8
      Virial theorem: -V/T =      2.002190
@    MULPOP   C_a     0.64; C_b    -0.23; C_c     0.21; C_d    -0.02; N_a    -0.64; N_b     1.95; O_a    -1.19; O_b    -1.39; H_a     0.18; H_b     0.01; 
@             H_c     0.25; H_d     0.08; H_e     0.10; H_f     0.06; 
 -----------------------------------------------------------------------------
  11  Screening settings (-IFTHRS, JTDIIS, DIFDEN, times)  -14   11    T  1.73D+02  1.74D+02
@ 11    -413.613229192        4.43268D-04   -1.47D-07    8
      Virial theorem: -V/T =      2.002190
@    MULPOP   C_a     0.64; C_b    -0.23; C_c     0.21; C_d    -0.02; N_a    -0.64; N_b     1.95; O_a    -1.19; O_b    -1.39; H_a     0.18; H_b     0.01; 
@             H_c     0.25; H_d     0.08; H_e     0.10; H_f     0.06; 
 -----------------------------------------------------------------------------
  12  Screening settings (-IFTHRS, JTDIIS, DIFDEN, times)  -14   12    T  1.72D+02  1.73D+02
@ 12    -413.613229235        1.72042D-04   -4.38D-08    8
      Virial theorem: -V/T =      2.002190
@    MULPOP   C_a     0.64; C_b    -0.23; C_c     0.21; C_d    -0.02; N_a    -0.64; N_b     1.95; O_a    -1.19; O_b    -1.39; H_a     0.18; H_b     0.01; 
@             H_c     0.25; H_d     0.08; H_e     0.10; H_f     0.06; 
 -----------------------------------------------------------------------------
  13  Screening settings (-IFTHRS, JTDIIS, DIFDEN, times)  -14   13    T  1.73D+02  1.74D+02
@ 13    -413.613229242        7.80094D-05   -6.07D-09    8
      Virial theorem: -V/T =      2.002190
@    MULPOP   C_a     0.64; C_b    -0.23; C_c     0.21; C_d    -0.02; N_a    -0.64; N_b     1.95; O_a    -1.19; O_b    -1.39; H_a     0.18; H_b     0.01; 
@             H_c     0.25; H_d     0.08; H_e     0.10; H_f     0.06; 
 -----------------------------------------------------------------------------
  14  Screening settings (-IFTHRS, JTDIIS, DIFDEN, times)  -14   14    T  1.73D+02  1.73D+02
@ 14    -413.613229243        2.62269D-05   -9.55D-10    8
      Virial theorem: -V/T =      2.002190
@    MULPOP   C_a     0.64; C_b    -0.23; C_c     0.21; C_d    -0.02; N_a    -0.64; N_b     1.95; O_a    -1.19; O_b    -1.39; H_a     0.18; H_b     0.01; 
@             H_c     0.25; H_d     0.08; H_e     0.10; H_f     0.06; 
 -----------------------------------------------------------------------------
  15  Screening settings (-IFTHRS, JTDIIS, DIFDEN, times)  -14   15    T  1.72D+02  1.73D+02
@ 15    -413.613229243        1.08707D-05   -1.23D-10    8
      Virial theorem: -V/T =      2.002190
@    MULPOP   C_a     0.64; C_b    -0.23; C_c     0.21; C_d    -0.02; N_a    -0.64; N_b     1.95; O_a    -1.19; O_b    -1.39; H_a     0.18; H_b     0.01; 
@             H_c     0.25; H_d     0.08; H_e     0.10; H_f     0.06; 
 -----------------------------------------------------------------------------
  16  Screening settings (-IFTHRS, JTDIIS, DIFDEN, times)  -14   16    T  1.73D+02  1.74D+02
@ 16    -413.613229243        6.08173D-06   -2.48D-11    8

@ *** DIIS converged in  16 iterations !
@     Converged SCF energy, gradient:   -413.613229242648    6.08D-06
    - total time used in SIRFCK :              0.00 seconds


 *** SCF orbital energy analysis ***

 Only the 20 lowest virtual orbital energies printed in each symmetry.

 Number of electrons :   60
 Orbital occupations :   30

 Sym       Hartree-Fock orbital energies

1 A     -20.57648360   -20.57350450   -15.82895991   -15.61426764   -11.33084266
        -11.28768061   -11.27423787   -11.24674926    -1.56863648    -1.36583825
         -1.26220767    -1.12705906    -1.04994485    -0.93772996    -0.83341786
         -0.79216403    -0.74617005    -0.74153759    -0.70202672    -0.68839133
         -0.67711333    -0.62133978    -0.59256031    -0.54742795    -0.54536289
         -0.47454570    -0.47029492    -0.44528239    -0.43291816    -0.31392556
         -0.00187793     0.00510458     0.00987859     0.01254660     0.01423216
          0.01639972     0.01795872     0.02026661     0.02428205     0.02466352
          0.02622661     0.02658183     0.03352678     0.03447402     0.03696574
          0.03826676     0.03917266     0.03979679     0.04315342     0.04890841

    E(LUMO) :    -0.00187793 au (symmetry 1)
  - E(HOMO) :    -0.31392556 au (symmetry 1)
  ------------------------------------------
    gap     :     0.31204763 au

 --- Writing SIRIFC interface file

 CPU and wall time for SCF :    2955.654    2972.292


                       .-----------------------------------.
                       | --- Final results from SIRIUS --- |
                       `-----------------------------------'


@    Spin multiplicity:           1
@    Spatial symmetry:            1 ( irrep  A   in C1  )
@    Total charge of molecule:    0

@    Final HF energy:            -413.613229242648                 
@    Nuclear repulsion:           334.724575361275
@    Electronic energy:          -748.337804603923

@    Final gradient norm:           0.000006081732

 
     Date and time (Linux)  : Mon May  5 23:50:59 2025
     Host name              : xm048                                   

File label for MO orbitals:   5May25   FOCKDIIS

 (Only coefficients > 0.0100 are printed.)

 Molecular orbitals for symmetry species 1  (A  )
 ------------------------------------------------

    Orbital        21       22       23       24       25       26       27
   2 C_a :1s    -0.1371  -0.0926  -0.0152   0.0000   0.0566  -0.0336   0.0038
   4 C_a :1s    -0.0166   0.0371   0.0027   0.0000   0.0425  -0.0172   0.0019
   5 C_a :1s    -0.0039   0.0096  -0.0051   0.0000   0.0038   0.0176  -0.0156
   6 C_a :1s    -0.0122   0.0111  -0.0402   0.0000  -0.0065  -0.0054  -0.0200
   7 C_a :1s     0.0082   0.0153  -0.0364  -0.0000   0.0070   0.0157  -0.0523
   8 C_a :2px   -0.3531   0.0417  -0.3712   0.0000  -0.1802   0.0023  -0.0089
   9 C_a :2py    0.2537   0.3700  -0.2407  -0.0000  -0.1853   0.0578  -0.0083
  10 C_a :2pz    0.0000  -0.0000  -0.0000   0.4321  -0.0000  -0.0000  -0.0000
  14 C_a :2px    0.0237   0.0424  -0.0170  -0.0000  -0.0191  -0.0004   0.0048
  15 C_a :2py   -0.0377  -0.0390   0.0110  -0.0000  -0.0360  -0.0034  -0.0066
  16 C_a :2pz   -0.0000   0.0000  -0.0000   0.0183   0.0000  -0.0000   0.0000
  17 C_a :2px    0.0641   0.0100   0.0394  -0.0000   0.0371  -0.0571  -0.0706
  18 C_a :2py   -0.0438   0.0051   0.0208   0.0000   0.0127   0.0068  -0.0049
  19 C_a :2pz    0.0000  -0.0000   0.0000  -0.1221  -0.0000  -0.0000  -0.0000
  20 C_a :2px   -0.0143   0.0303   0.0266   0.0000  -0.0180  -0.0554   0.0019
  21 C_a :2py   -0.0233  -0.0110   0.0069   0.0000   0.0010  -0.0037   0.0039
  22 C_a :2pz   -0.0000  -0.0000  -0.0000  -0.0873   0.0000  -0.0000   0.0000
  23 C_a :2px   -0.0136   0.0064   0.0110  -0.0000   0.0070   0.0195   0.0034
  24 C_a :2py    0.0192  -0.0122  -0.0084   0.0000  -0.0021  -0.0063  -0.0106
  31 C_a :3d2-  -0.0144  -0.0121  -0.0121  -0.0000  -0.0103  -0.0017  -0.0013
  34 C_a :3d1+   0.0000  -0.0000   0.0000  -0.0119  -0.0000   0.0000  -0.0000
  35 C_a :3d2+  -0.0013   0.0103  -0.0143   0.0000  -0.0108   0.0008  -0.0004
  36 C_a :3d2-  -0.0129   0.0224   0.0517  -0.0000   0.0357  -0.0119   0.0214
  37 C_a :3d1-  -0.0000   0.0000  -0.0000  -0.0194   0.0000  -0.0000   0.0000
  38 C_a :3d0    0.0124   0.0045   0.0109   0.0000   0.0034   0.0015  -0.0008
  39 C_a :3d1+   0.0000  -0.0000   0.0000  -0.0277  -0.0000   0.0000  -0.0000
  40 C_a :3d2+  -0.0128   0.0175   0.0069  -0.0000   0.0089  -0.0189  -0.0037
  41 C_a :3d2-  -0.0258   0.0120  -0.0149   0.0000  -0.0100   0.0373   0.0119
  42 C_a :3d1-  -0.0000   0.0000  -0.0000  -0.1336   0.0000  -0.0000   0.0000
  43 C_a :3d0    0.0063  -0.0146   0.0180   0.0000   0.0041   0.0352  -0.0044
  44 C_a :3d1+  -0.0000   0.0000   0.0000   0.1223  -0.0000   0.0000  -0.0000
  45 C_a :3d2+   0.0447   0.0365   0.0592  -0.0000   0.0512  -0.0304  -0.0169
  46 C_a :3d2-   0.0062  -0.0186  -0.0119   0.0000   0.0141   0.0045   0.0212
  48 C_a :3d0    0.0002  -0.0052  -0.0054   0.0000   0.0000  -0.0115  -0.0066
  50 C_a :3d2+  -0.0073   0.0176  -0.0021  -0.0000  -0.0085   0.0064  -0.0151
  65 C_a :4f3-  -0.0102   0.0095  -0.0141   0.0000  -0.0277   0.0080  -0.0027
  66 C_a :4f2-  -0.0000   0.0000  -0.0000   0.0317   0.0000   0.0000  -0.0000
  68 C_a :4f0   -0.0000   0.0000  -0.0000   0.0161   0.0000   0.0000   0.0000
  69 C_a :4f1+  -0.0057  -0.0032  -0.0108   0.0000   0.0040   0.0025  -0.0033
  70 C_a :4f2+   0.0000   0.0000  -0.0000   0.0205   0.0000  -0.0000   0.0000
  71 C_a :4f3+   0.0042   0.0223   0.0244   0.0000   0.0167   0.0055   0.0054
  72 C_a :4f3-   0.0092  -0.0012   0.0132   0.0000  -0.0305   0.0157   0.0423
  77 C_a :4f2+  -0.0000  -0.0000  -0.0000  -0.0198   0.0000  -0.0000   0.0000
  78 C_a :4f3+  -0.0205   0.0034  -0.0417   0.0000   0.0159   0.0095  -0.0284
  97 C_a :5g4-   0.0076  -0.0190   0.0021  -0.0000   0.0105  -0.0023   0.0025
  98 C_a :5g3-  -0.0000  -0.0000   0.0000  -0.0117  -0.0000  -0.0000  -0.0000
 105 C_a :5g4+  -0.0041  -0.0108  -0.0068  -0.0000  -0.0197  -0.0065  -0.0007
 107 C_b :1s     0.0933  -0.0133   0.0032  -0.0000   0.0434   0.0400   0.0102
 109 C_b :1s     0.0332  -0.0020   0.0293  -0.0000   0.0871  -0.0205   0.0262
 110 C_b :1s    -0.0261  -0.0143  -0.0128   0.0000  -0.0167   0.0198   0.0356
 111 C_b :1s    -0.0182   0.0166  -0.0158  -0.0000  -0.0198   0.0146   0.0052
 112 C_b :1s    -0.0023   0.0102  -0.0371   0.0000  -0.0361  -0.0146  -0.0060
 113 C_b :2px   -0.1514   0.2967   0.1524   0.0000   0.4406   0.0468   0.0545
 114 C_b :2py   -0.2415  -0.4223   0.2798   0.0000   0.1212  -0.0828  -0.0053
 115 C_b :2pz   -0.0000  -0.0000  -0.0000   0.2808   0.0000  -0.0000   0.0000
 119 C_b :2px   -0.0126   0.0042  -0.0073   0.0000   0.0121   0.0066  -0.0073
 120 C_b :2py    0.0085   0.0118  -0.0051  -0.0000  -0.0177  -0.0118  -0.0071
 121 C_b :2pz   -0.0000   0.0000  -0.0000   0.0230   0.0000  -0.0000   0.0000
 122 C_b :2px    0.0220  -0.0416  -0.0077   0.0000  -0.0060  -0.0330  -0.0087
 123 C_b :2py    0.0291   0.0373  -0.0424  -0.0000  -0.0070   0.0135  -0.0236
 124 C_b :2pz   -0.0000  -0.0000   0.0000  -0.1273   0.0000  -0.0000  -0.0000
 125 C_b :2px   -0.0030   0.0017  -0.0585   0.0000  -0.0027   0.0403   0.0227
 126 C_b :2py   -0.0125   0.0057  -0.0480  -0.0000   0.0123   0.0410  -0.0361
 127 C_b :2pz    0.0000  -0.0000  -0.0000   0.0815  -0.0000   0.0000   0.0000
 129 C_b :2py   -0.0125   0.0174   0.0100  -0.0000   0.0168   0.0039   0.0046
 136 C_b :3d2-  -0.0051  -0.0133  -0.0050  -0.0000  -0.0154  -0.0016  -0.0021
 140 C_b :3d2+   0.0100   0.0119  -0.0060  -0.0000  -0.0154   0.0038  -0.0022
 141 C_b :3d2-  -0.0002  -0.0076   0.0543  -0.0000   0.0568  -0.0110  -0.0054
 143 C_b :3d0   -0.0011   0.0063   0.0103  -0.0000   0.0212  -0.0083   0.0088
 144 C_b :3d1+  -0.0000  -0.0000  -0.0000   0.0234   0.0000  -0.0000  -0.0000
 145 C_b :3d2+   0.0089  -0.0119   0.0229   0.0000   0.0874  -0.0128   0.0127
 146 C_b :3d2-   0.0218  -0.0157   0.0099  -0.0000   0.0135  -0.0001   0.0155
 148 C_b :3d0    0.0077   0.0143   0.0069  -0.0000   0.0208  -0.0300   0.0175
 149 C_b :3d1+  -0.0000  -0.0000   0.0000  -0.1411   0.0000  -0.0000   0.0000
 150 C_b :3d2+  -0.0205   0.0036  -0.0341   0.0000   0.0170  -0.0204   0.0222
 151 C_b :3d2-  -0.0082   0.0156   0.0227  -0.0000  -0.0173   0.0566   0.0014
 152 C_b :3d1-  -0.0000   0.0000   0.0000   0.0136  -0.0000   0.0000  -0.0000
 153 C_b :3d0   -0.0027   0.0063   0.0125  -0.0000   0.0038   0.0120   0.0094
 154 C_b :3d1+   0.0000  -0.0000   0.0000   0.0189  -0.0000  -0.0000   0.0000
 155 C_b :3d2+   0.0108  -0.0098   0.0188   0.0000   0.0051   0.0032   0.0171
 170 C_b :4f3-   0.0034   0.0246  -0.0032   0.0000  -0.0072  -0.0020  -0.0085
 171 C_b :4f2-  -0.0000   0.0000  -0.0000   0.0332   0.0000   0.0000   0.0000
 172 C_b :4f1-  -0.0061  -0.0119  -0.0062   0.0000   0.0031  -0.0110   0.0036
 173 C_b :4f0   -0.0000   0.0000  -0.0000   0.0270   0.0000   0.0000   0.0000
 175 C_b :4f2+   0.0000  -0.0000  -0.0000   0.0327  -0.0000  -0.0000   0.0000
 176 C_b :4f3+  -0.0056   0.0033  -0.0568   0.0000   0.0167   0.0027  -0.0127
 177 C_b :4f3-  -0.0210  -0.0009  -0.0434   0.0000  -0.0340   0.0242   0.0218
 178 C_b :4f2-   0.0000  -0.0000  -0.0000  -0.0372   0.0000  -0.0000   0.0000
 179 C_b :4f1-  -0.0064  -0.0005   0.0006  -0.0000  -0.0044  -0.0156   0.0036
 180 C_b :4f0   -0.0000   0.0000  -0.0000  -0.0338   0.0000  -0.0000  -0.0000
 181 C_b :4f1+   0.0022   0.0071  -0.0110  -0.0000   0.0052  -0.0131   0.0008
 182 C_b :4f2+   0.0000  -0.0000   0.0000  -0.0355  -0.0000  -0.0000  -0.0000
 183 C_b :4f3+   0.0057  -0.0193  -0.0288   0.0000   0.0217  -0.0257   0.0214
 202 C_b :5g4-  -0.0010   0.0179  -0.0119   0.0000  -0.0049  -0.0001  -0.0069
 210 C_b :5g4+  -0.0076  -0.0166  -0.0271  -0.0000   0.0107  -0.0091  -0.0033
 212 C_c :1s     0.1137   0.0606   0.0131   0.0000   0.0657  -0.0314  -0.0556
 214 C_c :1s     0.0025   0.0246  -0.0067   0.0000   0.0857  -0.0664  -0.1062
 215 C_c :1s    -0.0208   0.0049   0.0058   0.0000  -0.0057   0.0309   0.0098
 216 C_c :1s    -0.0053  -0.0003  -0.0153   0.0000  -0.0078   0.0091   0.0271
 217 C_c :1s    -0.0000   0.0080   0.0366  -0.0000  -0.0174  -0.0082   0.0091
 218 C_c :2px    0.0488  -0.2973   0.2116   0.0000  -0.4497  -0.0225  -0.0774
 219 C_c :2py    0.1229   0.4387   0.2648   0.0000  -0.1420   0.1402   0.0348
 220 C_c :2pz   -0.0000   0.0000  -0.0000   0.1365   0.0000  -0.0000   0.0000
 224 C_c :2px   -0.0057  -0.0221  -0.0022   0.0000  -0.0236  -0.0037   0.0138
 225 C_c :2py   -0.0107  -0.0159   0.0006   0.0000   0.0205   0.0106   0.0075
 226 C_c :2pz    0.0000  -0.0000  -0.0000   0.0156   0.0000  -0.0000   0.0000
 227 C_c :2px   -0.0039   0.0589   0.0068  -0.0000   0.0283   0.0245  -0.0121
 228 C_c :2py   -0.0284  -0.0500  -0.0423   0.0000   0.0052  -0.0117  -0.0117
 229 C_c :2pz   -0.0000   0.0000  -0.0000   0.0612   0.0000  -0.0000   0.0000
 230 C_c :2px    0.0097  -0.0095  -0.0185   0.0000   0.0382  -0.0881  -0.0189
 231 C_c :2py    0.0201   0.0011  -0.0385   0.0000   0.0081  -0.0266  -0.0111
 232 C_c :2pz   -0.0000   0.0000  -0.0000  -0.0243   0.0000   0.0000   0.0000
 233 C_c :2px    0.0180   0.0092  -0.0196  -0.0000   0.0056  -0.0268  -0.0145
 234 C_c :2py   -0.0042  -0.0171   0.0175   0.0000  -0.0221  -0.0002   0.0357
 241 C_c :3d2-  -0.0024  -0.0092   0.0064   0.0000  -0.0164  -0.0034  -0.0023
 245 C_c :3d2+   0.0104   0.0123   0.0056   0.0000  -0.0140   0.0040   0.0021
 246 C_c :3d2-  -0.0114  -0.0188  -0.0355   0.0000   0.0632   0.0064  -0.0228
 248 C_c :3d0   -0.0045   0.0023  -0.0096   0.0000   0.0201  -0.0090  -0.0171
 249 C_c :3d1+   0.0000  -0.0000   0.0000  -0.0174  -0.0000  -0.0000  -0.0000
 250 C_c :3d2+  -0.0043  -0.0310  -0.0059   0.0000   0.0760   0.0168   0.0272
 251 C_c :3d2-   0.0007  -0.0325  -0.0284  -0.0000  -0.0040   0.0886  -0.0118
 252 C_c :3d1-   0.0000   0.0000  -0.0000   0.0742  -0.0000   0.0000   0.0000
 253 C_c :3d0   -0.0029   0.0027  -0.0337  -0.0000   0.0153  -0.0169  -0.0205
 254 C_c :3d1+   0.0000  -0.0000   0.0000  -0.0209  -0.0000   0.0000  -0.0000
 255 C_c :3d2+  -0.0468   0.0023   0.0224  -0.0000   0.0269  -0.0389  -0.0499
 256 C_c :3d2-  -0.0037  -0.0057  -0.0235  -0.0000   0.0177   0.0091  -0.0343
 257 C_c :3d1-  -0.0000   0.0000   0.0000  -0.0213   0.0000  -0.0000   0.0000
 258 C_c :3d0    0.0009  -0.0020  -0.0098  -0.0000  -0.0015   0.0186   0.0089
 259 C_c :3d1+   0.0000  -0.0000  -0.0000   0.0101   0.0000  -0.0000   0.0000
 260 C_c :3d2+  -0.0357   0.0130  -0.0256   0.0000   0.0064   0.0007  -0.0462
 275 C_c :4f3-  -0.0076  -0.0162  -0.0027   0.0000   0.0186  -0.0234  -0.0502
 276 C_c :4f2-  -0.0000  -0.0000   0.0000   0.0155  -0.0000  -0.0000  -0.0000
 277 C_c :4f1-   0.0083   0.0104  -0.0034  -0.0000  -0.0002  -0.0103  -0.0024
 279 C_c :4f1+  -0.0006  -0.0022   0.0128   0.0000  -0.0092  -0.0012   0.0026
 280 C_c :4f2+   0.0000   0.0000  -0.0000   0.0161  -0.0000   0.0000   0.0000
 281 C_c :4f3+   0.0047  -0.0008  -0.0451  -0.0000  -0.0212   0.0198  -0.0310
 282 C_c :4f3-  -0.0126  -0.0035  -0.0092   0.0000   0.0085   0.0601  -0.0245
 284 C_c :4f1-   0.0022  -0.0039   0.0180   0.0000  -0.0023   0.0203   0.0164
 285 C_c :4f0    0.0000  -0.0000  -0.0000   0.0297   0.0000  -0.0000   0.0000
 287 C_c :4f2+   0.0000  -0.0000  -0.0000   0.0302   0.0000  -0.0000   0.0000
 288 C_c :4f3+  -0.0023   0.0249  -0.0611  -0.0000  -0.0242   0.0447  -0.0719
 307 C_c :5g4-   0.0072   0.0191   0.0166  -0.0000  -0.0085  -0.0093   0.0078
 308 C_c :5g3-   0.0000  -0.0000   0.0000  -0.0132  -0.0000  -0.0000   0.0000
 313 C_c :5g2+   0.0041   0.0026  -0.0103  -0.0000  -0.0015  -0.0101   0.0075
 315 C_c :5g4+  -0.0080  -0.0166   0.0214   0.0000   0.0141  -0.0120   0.0078
 317 C_d :1s    -0.2175  -0.1130   0.0636  -0.0000   0.0067   0.1126  -0.0047
 318 C_d :1s     0.0052   0.0020  -0.0021  -0.0000   0.0000  -0.0153  -0.0009
 319 C_d :1s    -0.0220   0.0089   0.0083   0.0000   0.0211   0.1229   0.0745
 320 C_d :1s     0.0167   0.0028  -0.0042  -0.0000   0.0223   0.0092   0.0078
 321 C_d :1s    -0.0074   0.0125   0.0024   0.0000   0.0014  -0.0349   0.0131
 322 C_d :1s     0.0203  -0.0127   0.0609   0.0000   0.0209  -0.0744   0.0531
 323 C_d :2px    0.2065  -0.1397  -0.2358   0.0000   0.1529   0.2523  -0.1318
 324 C_d :2py   -0.0029  -0.3257  -0.2778  -0.0000   0.2256  -0.1998  -0.0357
 325 C_d :2pz   -0.0000   0.0000  -0.0000   0.0713   0.0000   0.0000   0.0000
 329 C_d :2px   -0.0148  -0.0451  -0.0045   0.0000   0.0251   0.0532  -0.0251
 330 C_d :2py    0.0117   0.0130   0.0164   0.0000   0.0287   0.0034   0.0432
 332 C_d :2px   -0.0752   0.0453  -0.0436  -0.0000  -0.0606   0.0842   0.0224
 333 C_d :2py   -0.0301   0.0302   0.0795  -0.0000  -0.0712   0.1190   0.0747
 334 C_d :2pz    0.0000   0.0000  -0.0000   0.0748  -0.0000  -0.0000   0.0000
 335 C_d :2px   -0.0271  -0.0233   0.0173   0.0000   0.0111   0.0187   0.0764
 336 C_d :2py   -0.0060   0.0128   0.0236  -0.0000  -0.0104  -0.0057   0.0202
 337 C_d :2pz   -0.0000   0.0000  -0.0000  -0.0504   0.0000  -0.0000   0.0000
 338 C_d :2px   -0.0108  -0.0027   0.0112   0.0000  -0.0135   0.0159   0.0144
 339 C_d :2py    0.0147   0.0053  -0.0191  -0.0000   0.0195  -0.0141  -0.0390
 346 C_d :3d2-  -0.0087  -0.0047   0.0113  -0.0000  -0.0126  -0.0135   0.0028
 351 C_d :3d2-  -0.0123   0.0234  -0.0515   0.0000   0.0359  -0.0121   0.0123
 353 C_d :3d0    0.0121   0.0036  -0.0081  -0.0000  -0.0004  -0.0042   0.0197
 355 C_d :3d2+  -0.0029  -0.0031   0.0052   0.0000   0.0066   0.0235   0.0109
 356 C_d :3d2-  -0.0182   0.0302   0.0335   0.0000  -0.0022  -0.0056   0.0347
 357 C_d :3d1-  -0.0000   0.0000   0.0000  -0.0818  -0.0000   0.0000  -0.0000
 358 C_d :3d0    0.0113  -0.0030   0.0247   0.0000   0.0057   0.0215   0.0132
 359 C_d :3d1+  -0.0000   0.0000  -0.0000  -0.0113   0.0000  -0.0000  -0.0000
 360 C_d :3d2+  -0.0357   0.0460  -0.0108   0.0000   0.0086   0.0568  -0.0286
 361 C_d :3d2-  -0.0049  -0.0083   0.0239  -0.0000  -0.0063   0.0438   0.0423
 363 C_d :3d0   -0.0053   0.0049  -0.0021   0.0000  -0.0013  -0.0055  -0.0117
 364 C_d :3d1+  -0.0000   0.0000   0.0000  -0.0127   0.0000  -0.0000  -0.0000
 365 C_d :3d2+   0.0013   0.0004  -0.0190   0.0000   0.0016   0.0070   0.0615
 373 C_d :4f3-   0.0007   0.0009   0.0011  -0.0000  -0.0018  -0.0104  -0.0031
 379 C_d :4f3+   0.0002   0.0000  -0.0007  -0.0000  -0.0002   0.0002   0.0131
 380 C_d :4f3-  -0.0000  -0.0009  -0.0014   0.0000   0.0316  -0.0454  -0.0398
 382 C_d :4f1-   0.0021   0.0064  -0.0094   0.0000   0.0047  -0.0133   0.0048
 386 C_d :4f3+   0.0049  -0.0170   0.0180   0.0000  -0.0303   0.0181   0.0213
 387 C_d :4f3-   0.0347   0.0383  -0.0231  -0.0000   0.0256  -0.0874   0.0033
 388 C_d :4f2-   0.0000   0.0000  -0.0000   0.0158   0.0000  -0.0000   0.0000
 389 C_d :4f1-  -0.0054  -0.0016   0.0103   0.0000  -0.0016   0.0068   0.0102
 391 C_d :4f1+  -0.0020   0.0056   0.0013  -0.0000  -0.0086   0.0143  -0.0085
 392 C_d :4f2+   0.0000  -0.0000  -0.0000   0.0323   0.0000  -0.0000   0.0000
 393 C_d :4f3+  -0.0015   0.0061   0.0166  -0.0000   0.0021   0.0151  -0.0344
 412 C_d :5g4-   0.0042  -0.0089   0.0062   0.0000   0.0007  -0.0299  -0.0099
 420 C_d :5g4+  -0.0027  -0.0098   0.0020   0.0000  -0.0232  -0.0020   0.0261
 422 N_a :1s     0.0463   0.0507   0.0441   0.0000   0.0385   0.0120   0.0049
 424 N_a :1s    -0.0001  -0.0019   0.0107  -0.0000   0.0091  -0.0101   0.0038
 425 N_a :1s    -0.0536  -0.0204   0.0633   0.0000   0.0291  -0.0365   0.0344
 426 N_a :1s     0.0199   0.0155  -0.0137   0.0000   0.0092  -0.0209   0.0415
 427 N_a :1s    -0.0134  -0.0154  -0.0137   0.0000   0.0087   0.0323   0.0247
 428 N_a :2px    0.3907  -0.0040   0.2269  -0.0000   0.0848   0.0114   0.0048
 429 N_a :2py   -0.1272  -0.2892   0.0526  -0.0000  -0.0124  -0.0268  -0.0058
 430 N_a :2pz    0.0000  -0.0000   0.0000   0.6516  -0.0000   0.0000  -0.0000
 435 N_a :2py   -0.0065   0.0026  -0.0129   0.0000  -0.0072   0.0033  -0.0020
 436 N_a :2pz    0.0000  -0.0000  -0.0000   0.0123   0.0000  -0.0000   0.0000
 437 N_a :2px   -0.0101   0.0394   0.0179  -0.0000   0.0241  -0.0061   0.0084
 438 N_a :2py    0.0285   0.0422   0.0116  -0.0000  -0.0087   0.0018  -0.0129
 439 N_a :2pz    0.0000   0.0000   0.0000   0.0822  -0.0000   0.0000  -0.0000
 440 N_a :2px   -0.0159  -0.0093   0.0029  -0.0000   0.0003   0.0121  -0.0369
 441 N_a :2py    0.0043   0.0115  -0.0132  -0.0000   0.0015   0.0180  -0.0255
 442 N_a :2pz    0.0000  -0.0000   0.0000   0.0387  -0.0000   0.0000  -0.0000
 444 N_a :2py   -0.0136   0.0073   0.0057   0.0000  -0.0027   0.0043   0.0048
 456 N_a :3d2-  -0.0205  -0.0115  -0.0061   0.0000  -0.0036  -0.0017  -0.0011
 457 N_a :3d1-  -0.0000   0.0000  -0.0000  -0.0126   0.0000  -0.0000   0.0000
 459 N_a :3d1+   0.0000  -0.0000   0.0000   0.0140  -0.0000   0.0000  -0.0000
 460 N_a :3d2+  -0.0138   0.0143  -0.0143   0.0000  -0.0062  -0.0033  -0.0043
 461 N_a :3d2-  -0.0101  -0.0067   0.0038  -0.0000  -0.0021  -0.0022  -0.0097
 462 N_a :3d1-   0.0000  -0.0000  -0.0000  -0.0318   0.0000  -0.0000   0.0000
 463 N_a :3d0   -0.0153  -0.0069  -0.0037   0.0000  -0.0056   0.0014  -0.0031
 464 N_a :3d1+  -0.0000   0.0000   0.0000   0.0356  -0.0000   0.0000  -0.0000
 465 N_a :3d2+   0.0074  -0.0259   0.0053  -0.0000   0.0030   0.0092  -0.0019
 466 N_a :3d2-   0.0141   0.0163  -0.0089  -0.0000   0.0012   0.0014  -0.0035
 467 N_a :3d1-  -0.0000   0.0000  -0.0000  -0.0135   0.0000  -0.0000   0.0000
 469 N_a :3d1+   0.0000  -0.0000   0.0000   0.0142  -0.0000   0.0000  -0.0000
 470 N_a :3d2+   0.0040  -0.0085  -0.0005  -0.0000   0.0038   0.0076   0.0103
 492 N_a :4f3-   0.0080   0.0069   0.0120  -0.0000   0.0110  -0.0074  -0.0116
 494 N_a :4f1-   0.0050   0.0029   0.0110  -0.0000  -0.0015   0.0002   0.0000
 495 N_a :4f0    0.0000  -0.0000   0.0000   0.0107  -0.0000   0.0000  -0.0000
 497 N_a :4f2+   0.0000  -0.0000  -0.0000   0.0142  -0.0000  -0.0000   0.0000
 498 N_a :4f3+  -0.0049  -0.0151   0.0067   0.0000   0.0024   0.0039  -0.0002
 527 N_b :1s     0.0397   0.0356  -0.0339   0.0000   0.0310   0.0238  -0.0043
 529 N_b :1s     0.0129  -0.0017  -0.0066   0.0000   0.0119  -0.0017   0.0170
 530 N_b :1s     0.0300   0.0404  -0.1072  -0.0000   0.0435  -0.0530   0.0255
 531 N_b :1s    -0.0199  -0.0023  -0.0100   0.0000  -0.0018   0.0160  -0.0172
 532 N_b :1s    -0.0366  -0.0340  -0.0429   0.0000   0.0304   0.1176  -0.0525
 533 N_b :2px   -0.2583   0.0214   0.1391  -0.0000  -0.0965  -0.2401  -0.0019
 534 N_b :2py   -0.0790   0.1796   0.0225  -0.0000   0.0288   0.1477  -0.1089
 535 N_b :2pz   -0.0000   0.0000   0.0000  -0.0254  -0.0000   0.0000  -0.0000
 539 N_b :2px    0.0176  -0.0079  -0.0085   0.0000   0.0070   0.0002  -0.0128
 540 N_b :2py    0.0113  -0.0160  -0.0131   0.0000   0.0098  -0.0140  -0.0067
 542 N_b :2px    0.0835   0.0266   0.0034   0.0000   0.0243  -0.2008   0.0654
 543 N_b :2py   -0.0082  -0.0248  -0.0219  -0.0000   0.0242   0.0307  -0.0754
 545 N_b :2px    0.0112   0.0438   0.0041  -0.0000   0.0000  -0.1640  -0.1797
 546 N_b :2py   -0.0334   0.0169   0.0191  -0.0000  -0.0140   0.0685  -0.2073
 547 N_b :2pz    0.0000   0.0000   0.0000   0.0532  -0.0000   0.0000  -0.0000
 548 N_b :2px    0.0016  -0.0064   0.0082   0.0000   0.0069  -0.0166  -0.0022
 549 N_b :2py   -0.0092  -0.0035   0.0178  -0.0000  -0.0147   0.0247   0.0146
 556 N_b :3d2-   0.0009   0.0062   0.0008   0.0000  -0.0003  -0.0340  -0.0006
 560 N_b :3d2+  -0.0067   0.0083   0.0074   0.0000  -0.0023   0.0055  -0.0261
 561 N_b :3d2-  -0.0163  -0.0122   0.0108   0.0000  -0.0064   0.0235   0.0147
 565 N_b :3d2+   0.0006   0.0128   0.0019   0.0000  -0.0040   0.0120   0.0413
 566 N_b :3d2-  -0.0597  -0.0297   0.0230  -0.0000  -0.0335   0.1416   0.0539
 568 N_b :3d0    0.0054   0.0089  -0.0004  -0.0000   0.0013  -0.0261   0.0018
 570 N_b :3d2+  -0.0417   0.0218   0.0176  -0.0000  -0.0134  -0.0091   0.0957
 571 N_b :3d2-   0.0013   0.0078  -0.0044   0.0000   0.0014  -0.0233   0.0230
 573 N_b :3d0   -0.0036   0.0037   0.0049  -0.0000  -0.0031   0.0186  -0.0107
 575 N_b :3d2+  -0.0384   0.0190   0.0131  -0.0000  -0.0071   0.0044  -0.0057
 589 N_b :4f3+   0.0010  -0.0009  -0.0008  -0.0000   0.0012  -0.0040  -0.0124
 590 N_b :4f3-   0.0048   0.0082  -0.0018   0.0000   0.0020  -0.0231  -0.0085
 596 N_b :4f3+  -0.0045   0.0006  -0.0015   0.0000  -0.0095  -0.0018   0.0275
 597 N_b :4f3-   0.0206   0.0047  -0.0103   0.0000   0.0080  -0.0746   0.0316
 599 N_b :4f1-   0.0015  -0.0032  -0.0038   0.0000  -0.0011  -0.0056   0.0103
 603 N_b :4f3+   0.0113   0.0118  -0.0064   0.0000   0.0096  -0.0359  -0.0157
 622 N_b :5g4-   0.0019   0.0025  -0.0003  -0.0000  -0.0022   0.0055   0.0131
 632 O_a :1s     0.1215  -0.0399  -0.0491  -0.0000   0.0373   0.0118  -0.0052
 634 O_a :1s     0.0215  -0.0104  -0.0111  -0.0000   0.0081   0.0047  -0.0063
 635 O_a :1s     0.0455  -0.0275  -0.0108  -0.0000   0.0248   0.0284  -0.0933
 636 O_a :1s    -0.0015  -0.0445  -0.0070   0.0000  -0.0163   0.1684  -0.0848
 637 O_a :1s     0.0743  -0.0513  -0.0024   0.0000   0.0200  -0.0102  -0.0387
 638 O_a :2px    0.1606  -0.1507  -0.0737   0.0000   0.0548   0.3994  -0.2546
 639 O_a :2py    0.1855  -0.0028  -0.1330   0.0000   0.0402  -0.2603   0.7390
 640 O_a :2pz   -0.0000   0.0000  -0.0000  -0.0293   0.0000   0.0000  -0.0000
 644 O_a :2px   -0.0119   0.0021   0.0042   0.0000  -0.0028   0.0064   0.0009
 645 O_a :2py   -0.0039   0.0009   0.0004   0.0000  -0.0021  -0.0030   0.0148
 647 O_a :2px    0.0182  -0.0114  -0.0214   0.0000   0.0029   0.0587  -0.0345
 648 O_a :2py    0.0269  -0.0107  -0.0297   0.0000   0.0041  -0.0731   0.1918
 650 O_a :2px    0.0203  -0.0358   0.0025  -0.0000  -0.0097   0.0962   0.0559
 651 O_a :2py    0.0022  -0.0306   0.0006   0.0000  -0.0028   0.0693   0.1613
 652 O_a :2pz   -0.0000   0.0000  -0.0000  -0.0110   0.0000   0.0000  -0.0000
 666 O_a :3d2-  -0.0128   0.0024   0.0084  -0.0000  -0.0029   0.0042  -0.0233
 670 O_a :3d2+  -0.0018   0.0087  -0.0002  -0.0000  -0.0004  -0.0213   0.0182
 671 O_a :3d2-  -0.0244   0.0028   0.0210  -0.0000  -0.0014   0.0207  -0.0832
 673 O_a :3d0    0.0148  -0.0087  -0.0076   0.0000   0.0046   0.0047  -0.0165
 675 O_a :3d2+  -0.0097   0.0105   0.0114  -0.0000  -0.0050  -0.0422   0.0271
 676 O_a :3d2-  -0.0055   0.0059   0.0025  -0.0000  -0.0014  -0.0182  -0.0374
 678 O_a :3d0    0.0022  -0.0051  -0.0004   0.0000   0.0003   0.0142   0.0072
 680 O_a :3d2+  -0.0032   0.0072  -0.0015   0.0000   0.0046  -0.0173  -0.0035
 701 O_a :4f3+  -0.0022  -0.0037   0.0009  -0.0000   0.0001   0.0114  -0.0075
 702 O_a :4f3-   0.0056   0.0011  -0.0047   0.0000   0.0005  -0.0038   0.0165
 708 O_a :4f3+  -0.0009   0.0000  -0.0013  -0.0000   0.0008   0.0119  -0.0099
 737 O_b :1s    -0.0735   0.0569   0.0097  -0.0000   0.0085   0.0102  -0.0029
 739 O_b :1s    -0.0091   0.0140   0.0052  -0.0000  -0.0010   0.0088   0.0030
 740 O_b :1s    -0.0228   0.0323   0.0236   0.0000  -0.0045   0.0291   0.0279
 741 O_b :1s    -0.0688   0.0123   0.0549  -0.0000  -0.0377   0.2338  -0.0025
 742 O_b :1s    -0.0734   0.0408   0.0509  -0.0000  -0.0431   0.0383   0.1053
 743 O_b :2px   -0.1245  -0.1404   0.0440  -0.0000  -0.0731   0.6733   0.5552
 744 O_b :2py    0.1622  -0.1422  -0.0825   0.0000   0.0175  -0.2802   0.1178
 745 O_b :2pz    0.0000  -0.0000   0.0000  -0.0331  -0.0000  -0.0000   0.0000
 752 O_b :2px   -0.0371  -0.0370   0.0035  -0.0000  -0.0218   0.1415   0.1009
 753 O_b :2py    0.0289  -0.0181  -0.0077   0.0000   0.0006  -0.0281   0.0303
 755 O_b :2px    0.0131  -0.0193  -0.0130   0.0000   0.0158   0.0369   0.1742
 756 O_b :2py    0.0426  -0.0302  -0.0131   0.0000   0.0061  -0.0328   0.1182
 757 O_b :2pz    0.0000  -0.0000   0.0000  -0.0155  -0.0000  -0.0000   0.0000
 759 O_b :2py   -0.0058   0.0043   0.0001   0.0000  -0.0020  -0.0026   0.0124
 771 O_b :3d2-  -0.0060  -0.0098   0.0017   0.0000  -0.0031   0.0264   0.0202
 775 O_b :3d2+  -0.0094   0.0053   0.0060  -0.0000  -0.0028   0.0161  -0.0031
 776 O_b :3d2-  -0.0143  -0.0229   0.0017   0.0000  -0.0113   0.0679   0.0495
 778 O_b :3d0   -0.0105   0.0110   0.0046  -0.0000  -0.0011   0.0057  -0.0008
 780 O_b :3d2+  -0.0151   0.0123   0.0047  -0.0000  -0.0001   0.0195  -0.0105
 781 O_b :3d2-   0.0045  -0.0072  -0.0037   0.0000   0.0034   0.0077   0.0398
 783 O_b :3d0   -0.0068   0.0029   0.0030  -0.0000  -0.0018   0.0057  -0.0155
 785 O_b :3d2+  -0.0076   0.0069   0.0020  -0.0000  -0.0016   0.0116  -0.0174
 806 O_b :4f3+   0.0008   0.0029  -0.0013   0.0000   0.0007  -0.0133  -0.0037
 813 O_b :4f3+   0.0020   0.0039  -0.0004  -0.0000   0.0021  -0.0173  -0.0084
 841 H_a :1s    -0.3244   0.1162  -0.4910  -0.0000  -0.2754   0.0014  -0.0174
 842 H_a :1s     0.0097  -0.0039   0.0143   0.0000   0.0080   0.0004   0.0007
 843 H_a :1s     0.0704  -0.0830   0.0288   0.0000   0.0377   0.0180  -0.0157
 844 H_a :1s     0.0272  -0.0017   0.0628  -0.0000   0.0373  -0.0382  -0.0254
 845 H_a :1s     0.0087   0.0302   0.0017  -0.0000   0.0170  -0.0471  -0.0411
 846 H_a :1s    -0.0023   0.0072  -0.0078  -0.0000  -0.0043  -0.0113  -0.0097
 853 H_a :2px    0.0019   0.0163   0.0164  -0.0000   0.0055  -0.0021   0.0065
 856 H_a :2px    0.0187   0.0158   0.0257  -0.0000   0.0129   0.0113  -0.0876
 857 H_a :2py   -0.0011  -0.0447  -0.0107   0.0000   0.0279  -0.0177   0.0427
 859 H_a :2px   -0.0044   0.0028  -0.0140   0.0000  -0.0040  -0.0187  -0.0146
 860 H_a :2py    0.0038  -0.0024   0.0119  -0.0000  -0.0113   0.0113  -0.0050
 881 H_a :3d2+   0.0016   0.0086   0.0083  -0.0000  -0.0005   0.0020  -0.0203
 902 H_a :4f3+  -0.0004  -0.0049   0.0045   0.0000  -0.0051   0.0008   0.0118
 903 H_b :1s     0.2737  -0.1197  -0.2698  -0.0000  -0.5228   0.0147  -0.0510
 904 H_b :1s    -0.0095   0.0048   0.0091   0.0000   0.0156  -0.0000   0.0003
 905 H_b :1s    -0.0651   0.0575  -0.0211   0.0000  -0.0097   0.0126  -0.0046
 906 H_b :1s    -0.0140   0.0094   0.0035   0.0000   0.0145   0.0106  -0.0188
 907 H_b :1s     0.0194  -0.0141  -0.0365   0.0000  -0.0052  -0.0367   0.0025
 908 H_b :1s     0.0023  -0.0046   0.0066   0.0000  -0.0036  -0.0008   0.0156
 915 H_b :2px   -0.0019   0.0061  -0.0188   0.0000  -0.0247   0.0032  -0.0032
 916 H_b :2py   -0.0053   0.0024  -0.0050   0.0000  -0.0177   0.0037  -0.0049
 918 H_b :2px    0.0195  -0.0099   0.0091  -0.0000   0.0070  -0.0311  -0.0193
 919 H_b :2py    0.0024   0.0292  -0.0211   0.0000  -0.0175  -0.0002  -0.0012
 920 H_b :2pz   -0.0000   0.0000  -0.0000  -0.0689   0.0000  -0.0000   0.0000
 921 H_b :2px    0.0123  -0.0211   0.0046   0.0000   0.0053   0.0057   0.0112
 922 H_b :2py   -0.0282   0.0259   0.0210  -0.0000  -0.0291   0.0139  -0.0077
 923 H_b :2pz    0.0000  -0.0000   0.0000   0.0195  -0.0000   0.0000  -0.0000
 938 H_b :3d2+   0.0038  -0.0016   0.0113   0.0000   0.0038   0.0003   0.0049
 939 H_b :3d2-  -0.0000  -0.0046  -0.0121  -0.0000   0.0021  -0.0040   0.0124
 941 H_b :3d0   -0.0013   0.0013  -0.0178  -0.0000  -0.0039   0.0001   0.0035
 943 H_b :3d2+  -0.0042   0.0045  -0.0158  -0.0000  -0.0041   0.0055  -0.0032
 960 H_b :4f1-   0.0082  -0.0051   0.0054  -0.0000   0.0067  -0.0100   0.0077
 965 H_c :1s    -0.3420   0.1252  -0.2606   0.0000  -0.0914   0.0044  -0.0028
 966 H_c :1s     0.0164  -0.0033   0.0095  -0.0000   0.0035   0.0003   0.0007
 967 H_c :1s     0.1053  -0.0248   0.0601  -0.0000   0.0378   0.0088  -0.0050
 968 H_c :1s     0.0799   0.0319   0.0682  -0.0000   0.0516  -0.0176  -0.0502
 969 H_c :1s    -0.0012  -0.0248  -0.0001   0.0000  -0.0114   0.0234   0.0269
 979 H_c :2pz   -0.0000   0.0000  -0.0000   0.0200   0.0000  -0.0000   0.0000
 980 H_c :2px    0.0243   0.0405   0.0144  -0.0000   0.0062  -0.0073   0.0006
 981 H_c :2py   -0.0313   0.0171  -0.0119   0.0000  -0.0310   0.0241  -0.0098
 982 H_c :2pz   -0.0000   0.0000   0.0000   0.0299  -0.0000   0.0000  -0.0000
 984 H_c :2py    0.0005   0.0156  -0.0124  -0.0000  -0.0089  -0.0153  -0.0091
 985 H_c :2pz    0.0000   0.0000   0.0000   0.0130  -0.0000   0.0000  -0.0000
1027 H_d :1s    -0.0114  -0.2968   0.1551  -0.0000   0.0377  -0.0240  -0.0026
1028 H_d :1s     0.0023   0.0113  -0.0037  -0.0000  -0.0004   0.0001   0.0001
1029 H_d :1s    -0.0044   0.0604  -0.0589   0.0000  -0.0330   0.0079  -0.0179
1030 H_d :1s     0.0515   0.0073   0.0369  -0.0000   0.0184   0.0215   0.0085
1031 H_d :1s     0.0103   0.0019   0.0430  -0.0000   0.0230  -0.0062   0.0074
1039 H_d :2px    0.0138   0.0023   0.0105  -0.0000   0.0087   0.0003   0.0011
1041 H_d :2pz   -0.0000  -0.0000  -0.0000   0.0278   0.0000  -0.0000   0.0000
1042 H_d :2px    0.0045   0.0124   0.0063   0.0000  -0.0012   0.0143  -0.0105
1043 H_d :2py   -0.0002   0.0137   0.0142  -0.0000  -0.0072  -0.0169  -0.0024
1044 H_d :2pz    0.0000  -0.0000   0.0000   0.0606  -0.0000   0.0000  -0.0000
1045 H_d :2px   -0.0114   0.0071   0.0018   0.0000  -0.0082  -0.0061  -0.0059
1046 H_d :2py    0.0022  -0.0035  -0.0108  -0.0000  -0.0031  -0.0024  -0.0031
1047 H_d :2pz    0.0000  -0.0000   0.0000   0.0135  -0.0000   0.0000  -0.0000
1067 H_d :3d2+   0.0001   0.0071  -0.0004  -0.0000  -0.0007  -0.0009  -0.0115
1089 H_e :1s     0.1579  -0.0499   0.3078   0.0000  -0.5049  -0.0130  -0.0516
1090 H_e :1s    -0.0043   0.0030  -0.0098  -0.0000   0.0147   0.0017  -0.0016
1091 H_e :1s    -0.0076   0.0732  -0.0286  -0.0000  -0.0127  -0.0262   0.0677
1092 H_e :1s     0.0021   0.0004   0.0155  -0.0000   0.0217  -0.0408   0.0467
1093 H_e :1s    -0.0093   0.0300  -0.0113  -0.0000   0.0064  -0.0594  -0.0373
1094 H_e :1s     0.0007  -0.0073   0.0053   0.0000   0.0025   0.0139   0.0076
1101 H_e :2px   -0.0065  -0.0170  -0.0179   0.0000   0.0274   0.0042   0.0038
1102 H_e :2py   -0.0044  -0.0076   0.0031  -0.0000   0.0105   0.0087  -0.0109
1104 H_e :2px    0.0157   0.0230   0.0126  -0.0000   0.0159  -0.0942   0.0460
1105 H_e :2py   -0.0144  -0.0377  -0.0145   0.0000  -0.0331   0.0485   0.0554
1107 H_e :2px    0.0228   0.0069   0.0152  -0.0000  -0.0271   0.0225   0.0289
1108 H_e :2py    0.0005  -0.0501   0.0155   0.0000   0.0157   0.0264   0.0761
1124 H_e :3d2+   0.0023  -0.0056  -0.0146   0.0000   0.0047   0.0048   0.0103
1125 H_e :3d2-  -0.0022  -0.0101   0.0029  -0.0000  -0.0164   0.0143   0.0212
1126 H_e :3d1-   0.0000  -0.0000  -0.0000   0.0178   0.0000  -0.0000   0.0000
1127 H_e :3d0   -0.0051   0.0023   0.0173  -0.0000  -0.0172   0.0102  -0.0082
1129 H_e :3d2+  -0.0095   0.0176   0.0195  -0.0000  -0.0065  -0.0010  -0.0406
1144 H_e :4f3-   0.0007   0.0055   0.0033  -0.0000   0.0022   0.0011  -0.0155
1146 H_e :4f1-  -0.0011   0.0154   0.0013  -0.0000   0.0012  -0.0098  -0.0244
1148 H_e :4f1+   0.0020  -0.0059  -0.0006   0.0000   0.0017   0.0007   0.0118
1150 H_e :4f3+   0.0041  -0.0145  -0.0023   0.0000   0.0026   0.0097   0.0292
1151 H_f :1s    -0.2965   0.2155   0.4112  -0.0000  -0.3010  -0.0896   0.1382
1152 H_f :1s     0.0095  -0.0081  -0.0134   0.0000   0.0093   0.0031  -0.0016
1153 H_f :1s     0.0734  -0.0855  -0.0260  -0.0000   0.0506   0.0004  -0.0296
1154 H_f :1s     0.0738  -0.0079  -0.0751   0.0000   0.0799  -0.1057  -0.0536
1155 H_f :1s     0.0295  -0.0138   0.0024   0.0000   0.0027  -0.0590   0.0258
1156 H_f :1s     0.0009   0.0040  -0.0041  -0.0000   0.0035  -0.0045  -0.0117
1163 H_f :2px    0.0030  -0.0084   0.0172  -0.0000  -0.0040  -0.0118   0.0059
1164 H_f :2py   -0.0017  -0.0067   0.0132  -0.0000   0.0034   0.0099   0.0005
1166 H_f :2px   -0.0171  -0.0152   0.0227   0.0000   0.0026  -0.0216   0.0105
1167 H_f :2py   -0.0537   0.0265   0.0509  -0.0000  -0.0371   0.1274  -0.0357
1168 H_f :2pz   -0.0000   0.0000   0.0000  -0.0635   0.0000   0.0000  -0.0000
1169 H_f :2px    0.0195  -0.0069  -0.0282  -0.0000   0.0096   0.0037   0.0334
1170 H_f :2py   -0.0020  -0.0118   0.0438  -0.0000  -0.0067   0.0116   0.0280
1187 H_f :3d2-   0.0024   0.0034  -0.0034   0.0000   0.0031  -0.0166  -0.0001
1191 H_f :3d2+  -0.0030   0.0084  -0.0055  -0.0000  -0.0007   0.0006  -0.0107
1212 H_f :4f3+  -0.0050   0.0033   0.0014   0.0000  -0.0028   0.0163  -0.0000

    Orbital        28       29       30       31       32       33       34
   2 C_a :1s    -0.0000  -0.0000   0.0000   0.0042  -0.0138  -0.0139  -0.0000
   4 C_a :1s    -0.0000  -0.0000   0.0000   0.1088  -0.3935  -0.1832  -0.0000
   5 C_a :1s    -0.0000  -0.0000  -0.0000  -0.5686   0.5238   0.6301   0.0000
   6 C_a :1s     0.0000  -0.0000   0.0000  -1.5908   1.0401  -1.3316   0.0000
   7 C_a :1s    -0.0000  -0.0000   0.0000  -3.1400   3.2445 -11.3128  -0.0000
   8 C_a :2px   -0.0000  -0.0000  -0.0000   0.0312  -0.0144  -0.0204  -0.0000
  10 C_a :2pz    0.0360  -0.0050  -0.3143  -0.0000   0.0000   0.0000  -0.0305
  14 C_a :2px   -0.0000   0.0000  -0.0000   0.0207   0.0748   0.0656  -0.0000
  15 C_a :2py    0.0000   0.0000  -0.0000   0.0189   0.1117   0.2194  -0.0000
  16 C_a :2pz    0.0197  -0.0013  -0.0178   0.0000   0.0000  -0.0000  -0.0441
  17 C_a :2px   -0.0000  -0.0000   0.0000   0.6336   0.6247   1.4137  -0.0000
  18 C_a :2py   -0.0000  -0.0000  -0.0000  -0.4756   0.6053  -0.8394   0.0000
  19 C_a :2pz   -0.0239   0.0354  -0.1128  -0.0000  -0.0000   0.0000  -1.2787
  20 C_a :2px   -0.0000   0.0000  -0.0000  -0.1282  -3.6827  -4.1898   0.0000
  21 C_a :2py    0.0000   0.0000  -0.0000   2.4305  -4.8378   3.1354   0.0000
  22 C_a :2pz    0.0557  -0.0538  -0.0986   0.0000  -0.0000  -0.0000   4.5551
  23 C_a :2px    0.0000   0.0000   0.0000  -2.9765   3.4666 -11.3949  -0.0000
  24 C_a :2py   -0.0000  -0.0000  -0.0000   3.9348  -8.2296  10.2463   0.0000
  25 C_a :2pz   -0.0013   0.0045  -0.0002  -0.0000  -0.0000   0.0000   8.5347
  32 C_a :3d1-  -0.0151   0.0010   0.0216   0.0000  -0.0000  -0.0000  -0.0004
  36 C_a :3d2-  -0.0000  -0.0000  -0.0000   0.0625  -0.0317   0.0673  -0.0000
  37 C_a :3d1-   0.0067  -0.0009   0.0301   0.0000  -0.0000  -0.0000  -0.0082
  38 C_a :3d0    0.0000   0.0000  -0.0000   0.0109  -0.0975  -0.0705   0.0000
  39 C_a :3d1+  -0.0122   0.0031   0.0018  -0.0000  -0.0000   0.0000   0.0748
  40 C_a :3d2+  -0.0000  -0.0000   0.0000   0.0358   0.0865   0.0756  -0.0000
  41 C_a :3d2-   0.0000  -0.0000  -0.0000   0.3026  -0.3613   1.5137   0.0000
  42 C_a :3d1-   0.1281   0.0162  -0.0666   0.0000  -0.0000  -0.0000  -0.1473
  43 C_a :3d0    0.0000  -0.0000  -0.0000   0.0649  -0.0915   0.9946   0.0000
  44 C_a :3d1+   0.0021   0.0006   0.1382  -0.0000   0.0000   0.0000   0.3408
  45 C_a :3d2+   0.0000   0.0000  -0.0000  -0.0224   0.4113  -1.0943  -0.0000
  46 C_a :3d2-  -0.0000   0.0000  -0.0000  -0.2335  -0.6109  -0.5869   0.0000
  47 C_a :3d1-   0.0055  -0.0106   0.0206  -0.0000   0.0000   0.0000   0.3272
  48 C_a :3d0   -0.0000  -0.0000  -0.0000   0.2105   0.5735   2.3469   0.0000
  49 C_a :3d1+  -0.0282   0.0441   0.0338  -0.0000   0.0000   0.0000   0.5363
  50 C_a :3d2+   0.0000   0.0000   0.0000  -0.6503   0.1033   0.6561  -0.0000
  65 C_a :4f3-  -0.0000   0.0000  -0.0000   0.0307  -0.1860  -0.0353  -0.0000
  66 C_a :4f2-   0.0135  -0.0026  -0.0144   0.0000   0.0000  -0.0000  -0.0572
  67 C_a :4f1-   0.0000   0.0000   0.0000   0.0174  -0.0432   0.0848   0.0000
  68 C_a :4f0    0.0103  -0.0004  -0.0050   0.0000   0.0000  -0.0000  -0.0060
  69 C_a :4f1+  -0.0000   0.0000   0.0000  -0.0036  -0.0115  -0.0391  -0.0000
  70 C_a :4f2+   0.0139  -0.0040  -0.0009   0.0000  -0.0000  -0.0000  -0.0227
  71 C_a :4f3+  -0.0000  -0.0000  -0.0000  -0.0209   0.0158  -0.1157  -0.0000
  72 C_a :4f3-   0.0000   0.0000   0.0000  -0.0586  -0.9441   0.1352   0.0000
  73 C_a :4f2-  -0.0278  -0.0110  -0.0196  -0.0000   0.0000   0.0000  -0.8905
  74 C_a :4f1-  -0.0000   0.0000  -0.0000   0.0275  -0.1246   0.0653  -0.0000
  75 C_a :4f0   -0.0186  -0.0015  -0.0090  -0.0000   0.0000   0.0000  -0.3023
  76 C_a :4f1+   0.0000   0.0000   0.0000  -0.0158   0.0232  -0.0657  -0.0000
  77 C_a :4f2+   0.0496   0.0073  -0.0544   0.0000  -0.0000  -0.0000  -0.4438
  78 C_a :4f3+   0.0000  -0.0000   0.0000  -0.0698   0.1270  -0.0381  -0.0000
  88 C_a :5g4-   0.0000   0.0000   0.0000  -0.0018   0.0110   0.0011  -0.0000
  97 C_a :5g4-   0.0000  -0.0000   0.0000  -0.0284   0.0921  -0.0021   0.0000
  99 C_a :5g2-   0.0000  -0.0000  -0.0000   0.0034   0.0141  -0.0092   0.0000
 102 C_a :5g1+  -0.0039  -0.0003  -0.0020  -0.0000  -0.0000  -0.0000   0.0102
 103 C_a :5g2+   0.0000  -0.0000   0.0000   0.0051  -0.0270   0.0246   0.0000
 105 C_a :5g4+   0.0000   0.0000   0.0000  -0.0268  -0.0062  -0.0637   0.0000
 107 C_b :1s    -0.0000  -0.0000  -0.0000   0.0140   0.0106  -0.0118   0.0000
 109 C_b :1s    -0.0000   0.0000   0.0000  -0.1654   0.4024  -0.3012  -0.0000
 110 C_b :1s     0.0000  -0.0000  -0.0000  -0.3503  -0.3872   0.9045   0.0000
 111 C_b :1s    -0.0000  -0.0000  -0.0000  -0.1651  -0.8632   2.2651   0.0000
 112 C_b :1s    -0.0000  -0.0000   0.0000   2.7754  -5.6931   5.1660   0.0000
 113 C_b :2px   -0.0000  -0.0000   0.0000  -0.0146  -0.0142   0.0146  -0.0000
 115 C_b :2pz    0.3311  -0.0320  -0.4922  -0.0000   0.0000   0.0000  -0.0122
 119 C_b :2px   -0.0000   0.0000  -0.0000  -0.0324   0.0017  -0.1482  -0.0000
 120 C_b :2py    0.0000   0.0000   0.0000   0.0709   0.1819   0.0856   0.0000
 121 C_b :2pz    0.0216  -0.0091  -0.0215  -0.0000   0.0000   0.0000  -0.0350
 122 C_b :2px    0.0000   0.0000   0.0000  -0.2150   1.0883   0.1085  -0.0000
 123 C_b :2py   -0.0000  -0.0000  -0.0000  -0.3503   0.3541  -0.7017  -0.0000
 124 C_b :2pz    0.0582  -0.0462  -0.1902  -0.0000  -0.0000   0.0000  -0.4311
 125 C_b :2px   -0.0000  -0.0000  -0.0000   0.7824  -3.0006   5.5292   0.0000
 126 C_b :2py    0.0000  -0.0000   0.0000  -0.5921   0.5464  -0.4766   0.0000
 127 C_b :2pz   -0.0340   0.0346   0.0443  -0.0000   0.0000   0.0000  -2.7069
 128 C_b :2px   -0.0000  -0.0000  -0.0000   2.3424  -5.0948   5.5571   0.0000
 129 C_b :2py    0.0000   0.0000   0.0000  -3.2280   7.9622 -12.6999  -0.0000
 130 C_b :2pz    0.0020   0.0030   0.0087  -0.0000   0.0000   0.0000  -0.6500
 137 C_b :3d1-  -0.0027   0.0006  -0.0126  -0.0000   0.0000  -0.0000  -0.0009
[...]

@ Singlet linear response function in a.u.

@ A operator, symmetry, frequency:   XDIPLEN    1 -0.022625
@ B operator, symmetry, frequency:   ZDIPLEN    1  0.022625

@ Value of linear response -<<A;B>>(omega):      -0.000000000000

@ Singlet linear response function in a.u.

@ A operator, symmetry, frequency:   YDIPLEN    1 -0.022625
@ B operator, symmetry, frequency:   ZDIPLEN    1  0.022625

@ Value of linear response -<<A;B>>(omega):      -0.000000000000

@ Singlet linear response function in a.u.

@ A operator, symmetry, frequency:   ZDIPLEN    1 -0.022625
@ B operator, symmetry, frequency:   ZDIPLEN    1  0.022625

@ Value of linear response -<<A;B>>(omega):      47.368286435458

@ Singlet linear response function in a.u.

@ A operator, symmetry, frequency:   XDIPLEN    1 -0.045251
@ B operator, symmetry, frequency:   ZDIPLEN    1  0.045251

@ Value of linear response -<<A;B>>(omega):      -0.000000000000

@ Singlet linear response function in a.u.

@ A operator, symmetry, frequency:   YDIPLEN    1 -0.045251
@ B operator, symmetry, frequency:   ZDIPLEN    1  0.045251

@ Value of linear response -<<A;B>>(omega):      -0.000000000000

@ Singlet linear response function in a.u.

@ A operator, symmetry, frequency:   ZDIPLEN    1 -0.045251
@ B operator, symmetry, frequency:   ZDIPLEN    1  0.045251

@ Value of linear response -<<A;B>>(omega):      47.610353725206


  Results from quadratic response calculation
 --------------------------------------------

@ B-freq = 0.000000  C-freq = 0.000000     beta(X;X,X) =   -256.82054830
@ B-freq = 0.000000  C-freq = 0.000000     beta(Y;X,X) =    523.64999199
@ B-freq = 0.000000  C-freq = 0.000000     beta(Z;X,X) =     -0.00000000
@ B-freq = 0.022625  C-freq = 0.000000     beta(X;X,X) =   -264.75808103
@ B-freq = 0.022625  C-freq = 0.000000     beta(Y;X,X) =    539.14562010
@ B-freq = 0.022625  C-freq = 0.000000     beta(Z;X,X) =     -0.00000000
@ B-freq = 0.045251  C-freq = 0.000000     beta(X;X,X) =   -290.95776214
@ B-freq = 0.045251  C-freq = 0.000000     beta(Y;X,X) =    590.39878314
@ B-freq = 0.045251  C-freq = 0.000000     beta(Z;X,X) =     -0.00000000
@ B-freq = 0.000000  C-freq = 0.000000     beta(X;Y,X) = beta(Y,X,X)
@ B-freq = 0.000000  C-freq = 0.000000     beta(X;Y,X) =    523.64993890
@ B-freq = 0.000000  C-freq = 0.000000     beta(Y;Y,X) =   -687.45301229
@ B-freq = 0.000000  C-freq = 0.000000     beta(Z;Y,X) =      0.00000000
@ B-freq = 0.022625  C-freq = 0.000000     beta(X;Y,X) =    539.14556482
@ B-freq = 0.022625  C-freq = 0.000000     beta(Y;Y,X) =   -713.15257277
@ B-freq = 0.022625  C-freq = 0.000000     beta(Z;Y,X) =      0.00000000
@ B-freq = 0.045251  C-freq = 0.000000     beta(X;Y,X) =    590.39872068
@ B-freq = 0.045251  C-freq = 0.000000     beta(Y;Y,X) =   -799.04996657
@ B-freq = 0.045251  C-freq = 0.000000     beta(Z;Y,X) =      0.00000000
@ B-freq = 0.000000  C-freq = 0.000000     beta(X;Z,X) = beta(Z,X,X)
@ B-freq = 0.000000  C-freq = 0.000000     beta(Y;Z,X) = beta(Z,Y,X)
@ B-freq = 0.000000  C-freq = 0.000000     beta(X;Z,X) =     -0.00000000
@ B-freq = 0.000000  C-freq = 0.000000     beta(Y;Z,X) =      0.00000000
@ B-freq = 0.000000  C-freq = 0.000000     beta(Z;Z,X) =     19.71368410
@ B-freq = 0.022625  C-freq = 0.000000     beta(X;Z,X) =     -0.00000000
@ B-freq = 0.022625  C-freq = 0.000000     beta(Y;Z,X) =      0.00000000
@ B-freq = 0.022625  C-freq = 0.000000     beta(Z;Z,X) =     19.93977873
@ B-freq = 0.045251  C-freq = 0.000000     beta(X;Z,X) =     -0.00000000
@ B-freq = 0.045251  C-freq = 0.000000     beta(Y;Z,X) =      0.00000000
@ B-freq = 0.045251  C-freq = 0.000000     beta(Z;Z,X) =     20.64890537
@ B-freq = 0.000000  C-freq = 0.022625     beta(X;X,X) = beta(X,X,X)
@ B-freq = 0.000000  C-freq = 0.022625     beta(Y;X,X) = beta(Y,X,X)
@ B-freq = 0.000000  C-freq = 0.022625     beta(Z;X,X) = beta(Z,X,X)
@ B-freq = 0.022625  C-freq = 0.022625     beta(X;X,X) =   -281.80661638
@ B-freq = 0.022625  C-freq = 0.022625     beta(Y;X,X) =    575.50770995
@ B-freq = 0.022625  C-freq = 0.022625     beta(Z;X,X) =     -0.00000000
@ B-freq = 0.045251  C-freq = 0.022625     beta(X;X,X) =   -321.42285219
@ B-freq = 0.045251  C-freq = 0.022625     beta(Y;X,X) =    657.32706591
@ B-freq = 0.045251  C-freq = 0.022625     beta(Z;X,X) =     -0.00000000
@ B-freq = 0.000000  C-freq = 0.022625     beta(X;Y,X) =    536.35339803
@ B-freq = 0.000000  C-freq = 0.022625     beta(Y;Y,X) =   -707.02311745
@ B-freq = 0.000000  C-freq = 0.022625     beta(Z;Y,X) =      0.00000000
@ B-freq = 0.022625  C-freq = 0.022625     beta(X;Y,X) =    566.45761054
@ B-freq = 0.022625  C-freq = 0.022625     beta(Y;Y,X) =   -762.29396343
@ B-freq = 0.022625  C-freq = 0.022625     beta(Z;Y,X) =      0.00000000
@ B-freq = 0.045251  C-freq = 0.022625     beta(X;Y,X) =    639.57754301
@ B-freq = 0.045251  C-freq = 0.022625     beta(Y;Y,X) =   -893.18283151
@ B-freq = 0.045251  C-freq = 0.022625     beta(Z;Y,X) =      0.00000000
@ B-freq = 0.000000  C-freq = 0.022625     beta(X;Z,X) =     -0.00000000
@ B-freq = 0.000000  C-freq = 0.022625     beta(Y;Z,X) =      0.00000000
@ B-freq = 0.000000  C-freq = 0.022625     beta(Z;Z,X) =     20.01476333
@ B-freq = 0.022625  C-freq = 0.022625     beta(X;Z,X) =     -0.00000000
@ B-freq = 0.022625  C-freq = 0.022625     beta(Y;Z,X) =      0.00000000
@ B-freq = 0.022625  C-freq = 0.022625     beta(Z;Z,X) =     20.48325989
@ B-freq = 0.045251  C-freq = 0.022625     beta(X;Z,X) =     -0.00000000
@ B-freq = 0.045251  C-freq = 0.022625     beta(Y;Z,X) =      0.00000000
@ B-freq = 0.045251  C-freq = 0.022625     beta(Z;Z,X) =     21.48671059
@ B-freq = 0.000000  C-freq = 0.045251     beta(X;X,X) = beta(X,X,X)
@ B-freq = 0.000000  C-freq = 0.045251     beta(Y;X,X) = beta(Y,X,X)
@ B-freq = 0.000000  C-freq = 0.045251     beta(Z;X,X) = beta(Z,X,X)
@ B-freq = 0.022625  C-freq = 0.045251     beta(X;X,X) = beta(X,X,X)
@ B-freq = 0.022625  C-freq = 0.045251     beta(Y;X,X) = beta(Y,X,X)
@ B-freq = 0.022625  C-freq = 0.045251     beta(Z;X,X) = beta(Z,X,X)
@ B-freq = 0.045251  C-freq = 0.045251     beta(X;X,X) =   -384.86736292
@ B-freq = 0.045251  C-freq = 0.045251     beta(Y;X,X) =    793.12711114
@ B-freq = 0.045251  C-freq = 0.045251     beta(Z;X,X) =     -0.00000000
@ B-freq = 0.000000  C-freq = 0.045251     beta(X;Y,X) =    577.93331640
@ B-freq = 0.000000  C-freq = 0.045251     beta(Y;Y,X) =   -771.59063462
@ B-freq = 0.000000  C-freq = 0.045251     beta(Z;Y,X) =      0.00000000
@ B-freq = 0.022625  C-freq = 0.045251     beta(X;Y,X) =    629.13124368
@ B-freq = 0.022625  C-freq = 0.045251     beta(Y;Y,X) =   -870.11762326
@ B-freq = 0.022625  C-freq = 0.045251     beta(Z;Y,X) =      0.00000000
@ B-freq = 0.045251  C-freq = 0.045251     beta(X;Y,X) =    740.33924413
@ B-freq = 0.045251  C-freq = 0.045251     beta(Y;Y,X) =  -1080.53299656
@ B-freq = 0.045251  C-freq = 0.045251     beta(Z;Y,X) =      0.00000000
@ B-freq = 0.000000  C-freq = 0.045251     beta(X;Z,X) =     -0.00000000
@ B-freq = 0.000000  C-freq = 0.045251     beta(Y;Z,X) =      0.00000000
@ B-freq = 0.000000  C-freq = 0.045251     beta(Z;Z,X) =     20.97494806
@ B-freq = 0.022625  C-freq = 0.045251     beta(X;Z,X) =     -0.00000000
@ B-freq = 0.022625  C-freq = 0.045251     beta(Y;Z,X) =      0.00000000
@ B-freq = 0.022625  C-freq = 0.045251     beta(Z;Z,X) =     21.74160361
@ B-freq = 0.045251  C-freq = 0.045251     beta(X;Z,X) =     -0.00000000
@ B-freq = 0.045251  C-freq = 0.045251     beta(Y;Z,X) =      0.00000000
@ B-freq = 0.045251  C-freq = 0.045251     beta(Z;Z,X) =     23.14922501
@ B-freq = 0.000000  C-freq = 0.000000     beta(X;X,Y) = beta(Y,X,X)
@ B-freq = 0.000000  C-freq = 0.000000     beta(Y;X,Y) = beta(Y,Y,X)
@ B-freq = 0.000000  C-freq = 0.000000     beta(Z;X,Y) = beta(Z,Y,X)
@ B-freq = 0.022625  C-freq = 0.000000     beta(X;X,Y) = beta(X,Y,X)
@ B-freq = 0.022625  C-freq = 0.000000     beta(Y;X,Y) = beta(Y,Y,X)
@ B-freq = 0.022625  C-freq = 0.000000     beta(Z;X,Y) = beta(Z,Y,X)
@ B-freq = 0.045251  C-freq = 0.000000     beta(X;X,Y) = beta(X,Y,X)
@ B-freq = 0.045251  C-freq = 0.000000     beta(Y;X,Y) = beta(Y,Y,X)
@ B-freq = 0.045251  C-freq = 0.000000     beta(Z;X,Y) = beta(Z,Y,X)
@ B-freq = 0.000000  C-freq = 0.000000     beta(X;Y,Y) = beta(Y,Y,X)
@ B-freq = 0.000000  C-freq = 0.000000     beta(X;Y,Y) =   -687.45303920
@ B-freq = 0.000000  C-freq = 0.000000     beta(Y;Y,Y) =    399.64909279
@ B-freq = 0.000000  C-freq = 0.000000     beta(Z;Y,Y) =     -0.00000000
@ B-freq = 0.022625  C-freq = 0.000000     beta(X;Y,Y) =   -707.02314521
@ B-freq = 0.022625  C-freq = 0.000000     beta(Y;Y,Y) =    420.83878584
@ B-freq = 0.022625  C-freq = 0.000000     beta(Z;Y,Y) =     -0.00000000
@ B-freq = 0.045251  C-freq = 0.000000     beta(X;Y,Y) =   -771.59066514
@ B-freq = 0.045251  C-freq = 0.000000     beta(Y;Y,Y) =    492.51228709
@ B-freq = 0.045251  C-freq = 0.000000     beta(Z;Y,Y) =     -0.00000000
@ B-freq = 0.000000  C-freq = 0.000000     beta(X;Z,Y) = beta(Z,Y,X)
@ B-freq = 0.000000  C-freq = 0.000000     beta(Y;Z,Y) = beta(Z,Y,Y)
@ B-freq = 0.000000  C-freq = 0.000000     beta(X;Z,Y) =      0.00000000
@ B-freq = 0.000000  C-freq = 0.000000     beta(Y;Z,Y) =     -0.00000000
@ B-freq = 0.000000  C-freq = 0.000000     beta(Z;Z,Y) =    -25.61941345
@ B-freq = 0.022625  C-freq = 0.000000     beta(X;Z,Y) =      0.00000000
@ B-freq = 0.022625  C-freq = 0.000000     beta(Y;Z,Y) =     -0.00000000
@ B-freq = 0.022625  C-freq = 0.000000     beta(Z;Z,Y) =    -25.99844367
@ B-freq = 0.045251  C-freq = 0.000000     beta(X;Z,Y) =      0.00000000
@ B-freq = 0.045251  C-freq = 0.000000     beta(Y;Z,Y) =     -0.00000000
@ B-freq = 0.045251  C-freq = 0.000000     beta(Z;Z,Y) =    -27.20059626
@ B-freq = 0.000000  C-freq = 0.022625     beta(X;X,Y) = beta(X,Y,X)
@ B-freq = 0.000000  C-freq = 0.022625     beta(Y;X,Y) = beta(Y,Y,X)
@ B-freq = 0.000000  C-freq = 0.022625     beta(Z;X,Y) = beta(Z,Y,X)
@ B-freq = 0.022625  C-freq = 0.022625     beta(X;X,Y) = beta(X,Y,X)
@ B-freq = 0.022625  C-freq = 0.022625     beta(Y;X,Y) = beta(Y,Y,X)
@ B-freq = 0.022625  C-freq = 0.022625     beta(Z;X,Y) = beta(Z,Y,X)
@ B-freq = 0.045251  C-freq = 0.022625     beta(X;X,Y) = beta(X,Y,X)
@ B-freq = 0.045251  C-freq = 0.022625     beta(Y;X,Y) = beta(Y,Y,X)
@ B-freq = 0.045251  C-freq = 0.022625     beta(Z;X,Y) = beta(Z,Y,X)
@ B-freq = 0.000000  C-freq = 0.022625     beta(X;Y,Y) = beta(X,Y,Y)
@ B-freq = 0.000000  C-freq = 0.022625     beta(Y;Y,Y) = beta(Y,Y,Y)
@ B-freq = 0.000000  C-freq = 0.022625     beta(Z;Y,Y) = beta(Z,Y,Y)
@ B-freq = 0.022625  C-freq = 0.022625     beta(X;Y,Y) =   -742.35711216
@ B-freq = 0.022625  C-freq = 0.022625     beta(Y;Y,Y) =    467.18047872
@ B-freq = 0.022625  C-freq = 0.022625     beta(Z;Y,Y) =     -0.00000000
@ B-freq = 0.045251  C-freq = 0.022625     beta(X;Y,Y) =   -830.72530600
@ B-freq = 0.045251  C-freq = 0.022625     beta(Y;Y,Y) =    578.87702602
@ B-freq = 0.045251  C-freq = 0.022625     beta(Z;Y,Y) =     -0.00000000
@ B-freq = 0.000000  C-freq = 0.022625     beta(X;Z,Y) =      0.00000000
@ B-freq = 0.000000  C-freq = 0.022625     beta(Y;Z,Y) =     -0.00000000
@ B-freq = 0.000000  C-freq = 0.022625     beta(Z;Z,Y) =    -26.16232121
@ B-freq = 0.022625  C-freq = 0.022625     beta(X;Z,Y) =      0.00000000
@ B-freq = 0.022625  C-freq = 0.022625     beta(Y;Z,Y) =     -0.00000000
@ B-freq = 0.022625  C-freq = 0.022625     beta(Z;Z,Y) =    -26.95493305
@ B-freq = 0.045251  C-freq = 0.022625     beta(X;Z,Y) =      0.00000000
@ B-freq = 0.045251  C-freq = 0.022625     beta(Y;Z,Y) =     -0.00000000
@ B-freq = 0.045251  C-freq = 0.022625     beta(Z;Z,Y) =    -28.68203016
@ B-freq = 0.000000  C-freq = 0.045251     beta(X;X,Y) = beta(X,Y,X)
@ B-freq = 0.000000  C-freq = 0.045251     beta(Y;X,Y) = beta(Y,Y,X)
@ B-freq = 0.000000  C-freq = 0.045251     beta(Z;X,Y) = beta(Z,Y,X)
@ B-freq = 0.022625  C-freq = 0.045251     beta(X;X,Y) = beta(X,Y,X)
@ B-freq = 0.022625  C-freq = 0.045251     beta(Y;X,Y) = beta(Y,Y,X)
@ B-freq = 0.022625  C-freq = 0.045251     beta(Z;X,Y) = beta(Z,Y,X)
@ B-freq = 0.045251  C-freq = 0.045251     beta(X;X,Y) = beta(X,Y,X)
@ B-freq = 0.045251  C-freq = 0.045251     beta(Y;X,Y) = beta(Y,Y,X)
@ B-freq = 0.045251  C-freq = 0.045251     beta(Z;X,Y) = beta(Z,Y,X)
@ B-freq = 0.000000  C-freq = 0.045251     beta(X;Y,Y) = beta(X,Y,Y)
@ B-freq = 0.000000  C-freq = 0.045251     beta(Y;Y,Y) = beta(Y,Y,Y)
@ B-freq = 0.000000  C-freq = 0.045251     beta(Z;Y,Y) = beta(Z,Y,Y)
@ B-freq = 0.022625  C-freq = 0.045251     beta(X;Y,Y) = beta(X,Y,Y)
@ B-freq = 0.022625  C-freq = 0.045251     beta(Y;Y,Y) = beta(Y,Y,Y)
@ B-freq = 0.022625  C-freq = 0.045251     beta(Z;Y,Y) = beta(Z,Y,Y)
@ B-freq = 0.045251  C-freq = 0.045251     beta(X;Y,Y) =   -962.42163602
@ B-freq = 0.045251  C-freq = 0.045251     beta(Y;Y,Y) =    767.55820044
@ B-freq = 0.045251  C-freq = 0.045251     beta(Z;Y,Y) =     -0.00000000
@ B-freq = 0.000000  C-freq = 0.045251     beta(X;Z,Y) =      0.00000000
@ B-freq = 0.000000  C-freq = 0.045251     beta(Y;Z,Y) =     -0.00000000
@ B-freq = 0.000000  C-freq = 0.045251     beta(Z;Z,Y) =    -27.91674076
@ B-freq = 0.022625  C-freq = 0.045251     beta(X;Z,Y) =      0.00000000
@ B-freq = 0.022625  C-freq = 0.045251     beta(Y;Z,Y) =     -0.00000000
@ B-freq = 0.022625  C-freq = 0.045251     beta(Z;Z,Y) =    -29.24346739
@ B-freq = 0.045251  C-freq = 0.045251     beta(X;Z,Y) =      0.00000000
@ B-freq = 0.045251  C-freq = 0.045251     beta(Y;Z,Y) =     -0.00000000
@ B-freq = 0.045251  C-freq = 0.045251     beta(Z;Z,Y) =    -31.73921953
@ B-freq = 0.000000  C-freq = 0.000000     beta(X;X,Z) = beta(Z,X,X)
@ B-freq = 0.000000  C-freq = 0.000000     beta(Y;X,Z) = beta(Z,Y,X)
@ B-freq = 0.000000  C-freq = 0.000000     beta(Z;X,Z) = beta(Z,Z,X)
@ B-freq = 0.022625  C-freq = 0.000000     beta(X;X,Z) = beta(X,Z,X)
@ B-freq = 0.022625  C-freq = 0.000000     beta(Y;X,Z) = beta(Y,Z,X)
@ B-freq = 0.022625  C-freq = 0.000000     beta(Z;X,Z) = beta(Z,Z,X)
@ B-freq = 0.045251  C-freq = 0.000000     beta(X;X,Z) = beta(X,Z,X)
@ B-freq = 0.045251  C-freq = 0.000000     beta(Y;X,Z) = beta(Y,Z,X)
@ B-freq = 0.045251  C-freq = 0.000000     beta(Z;X,Z) = beta(Z,Z,X)
@ B-freq = 0.000000  C-freq = 0.000000     beta(X;Y,Z) = beta(Z,Y,X)
@ B-freq = 0.000000  C-freq = 0.000000     beta(Y;Y,Z) = beta(Z,Y,Y)
@ B-freq = 0.000000  C-freq = 0.000000     beta(Z;Y,Z) = beta(Z,Z,Y)
@ B-freq = 0.022625  C-freq = 0.000000     beta(X;Y,Z) = beta(X,Z,Y)
@ B-freq = 0.022625  C-freq = 0.000000     beta(Y;Y,Z) = beta(Y,Z,Y)
@ B-freq = 0.022625  C-freq = 0.000000     beta(Z;Y,Z) = beta(Z,Z,Y)
@ B-freq = 0.045251  C-freq = 0.000000     beta(X;Y,Z) = beta(X,Z,Y)
@ B-freq = 0.045251  C-freq = 0.000000     beta(Y;Y,Z) = beta(Y,Z,Y)
@ B-freq = 0.045251  C-freq = 0.000000     beta(Z;Y,Z) = beta(Z,Z,Y)
@ B-freq = 0.000000  C-freq = 0.000000     beta(X;Z,Z) = beta(Z,Z,X)
@ B-freq = 0.000000  C-freq = 0.000000     beta(Y;Z,Z) = beta(Z,Z,Y)
@ B-freq = 0.000000  C-freq = 0.000000     beta(X;Z,Z) =     19.71367279
@ B-freq = 0.000000  C-freq = 0.000000     beta(Y;Z,Z) =    -25.61938625
@ B-freq = 0.000000  C-freq = 0.000000     beta(Z;Z,Z) =     -0.00000000
@ B-freq = 0.022625  C-freq = 0.000000     beta(X;Z,Z) =     20.01475169
@ B-freq = 0.022625  C-freq = 0.000000     beta(Y;Z,Z) =    -26.16229320
@ B-freq = 0.022625  C-freq = 0.000000     beta(Z;Z,Z) =     -0.00000000
@ B-freq = 0.045251  C-freq = 0.000000     beta(X;Z,Z) =     20.97493535
@ B-freq = 0.045251  C-freq = 0.000000     beta(Y;Z,Z) =    -27.91671013
@ B-freq = 0.045251  C-freq = 0.000000     beta(Z;Z,Z) =     -0.00000000
@ B-freq = 0.000000  C-freq = 0.022625     beta(X;X,Z) = beta(X,Z,X)
@ B-freq = 0.000000  C-freq = 0.022625     beta(Y;X,Z) = beta(Y,Z,X)
@ B-freq = 0.000000  C-freq = 0.022625     beta(Z;X,Z) = beta(Z,Z,X)
@ B-freq = 0.022625  C-freq = 0.022625     beta(X;X,Z) = beta(X,Z,X)
@ B-freq = 0.022625  C-freq = 0.022625     beta(Y;X,Z) = beta(Y,Z,X)
@ B-freq = 0.022625  C-freq = 0.022625     beta(Z;X,Z) = beta(Z,Z,X)
@ B-freq = 0.045251  C-freq = 0.022625     beta(X;X,Z) = beta(X,Z,X)
@ B-freq = 0.045251  C-freq = 0.022625     beta(Y;X,Z) = beta(Y,Z,X)
@ B-freq = 0.045251  C-freq = 0.022625     beta(Z;X,Z) = beta(Z,Z,X)
@ B-freq = 0.000000  C-freq = 0.022625     beta(X;Y,Z) = beta(X,Z,Y)
@ B-freq = 0.000000  C-freq = 0.022625     beta(Y;Y,Z) = beta(Y,Z,Y)
@ B-freq = 0.000000  C-freq = 0.022625     beta(Z;Y,Z) = beta(Z,Z,Y)
@ B-freq = 0.022625  C-freq = 0.022625     beta(X;Y,Z) = beta(X,Z,Y)
@ B-freq = 0.022625  C-freq = 0.022625     beta(Y;Y,Z) = beta(Y,Z,Y)
@ B-freq = 0.022625  C-freq = 0.022625     beta(Z;Y,Z) = beta(Z,Z,Y)
@ B-freq = 0.045251  C-freq = 0.022625     beta(X;Y,Z) = beta(X,Z,Y)
@ B-freq = 0.045251  C-freq = 0.022625     beta(Y;Y,Z) = beta(Y,Z,Y)
@ B-freq = 0.045251  C-freq = 0.022625     beta(Z;Y,Z) = beta(Z,Z,Y)
@ B-freq = 0.000000  C-freq = 0.022625     beta(X;Z,Z) = beta(X,Z,Z)
@ B-freq = 0.000000  C-freq = 0.022625     beta(Y;Z,Z) = beta(Y,Z,Z)
@ B-freq = 0.000000  C-freq = 0.022625     beta(Z;Z,Z) = beta(Z,Z,Z)
@ B-freq = 0.022625  C-freq = 0.022625     beta(X;Z,Z) =     20.73094802
@ B-freq = 0.022625  C-freq = 0.022625     beta(Y;Z,Z) =    -27.49939322
@ B-freq = 0.022625  C-freq = 0.022625     beta(Z;Z,Z) =     -0.00000000
@ B-freq = 0.045251  C-freq = 0.022625     beta(X;Z,Z) =     22.24712271
@ B-freq = 0.045251  C-freq = 0.022625     beta(Y;Z,Z) =    -30.36634590
@ B-freq = 0.045251  C-freq = 0.022625     beta(Z;Z,Z) =     -0.00000000
@ B-freq = 0.000000  C-freq = 0.045251     beta(X;X,Z) = beta(X,Z,X)
@ B-freq = 0.000000  C-freq = 0.045251     beta(Y;X,Z) = beta(Y,Z,X)
@ B-freq = 0.000000  C-freq = 0.045251     beta(Z;X,Z) = beta(Z,Z,X)
@ B-freq = 0.022625  C-freq = 0.045251     beta(X;X,Z) = beta(X,Z,X)
@ B-freq = 0.022625  C-freq = 0.045251     beta(Y;X,Z) = beta(Y,Z,X)
@ B-freq = 0.022625  C-freq = 0.045251     beta(Z;X,Z) = beta(Z,Z,X)
@ B-freq = 0.045251  C-freq = 0.045251     beta(X;X,Z) = beta(X,Z,X)
@ B-freq = 0.045251  C-freq = 0.045251     beta(Y;X,Z) = beta(Y,Z,X)
@ B-freq = 0.045251  C-freq = 0.045251     beta(Z;X,Z) = beta(Z,Z,X)
@ B-freq = 0.000000  C-freq = 0.045251     beta(X;Y,Z) = beta(X,Z,Y)
@ B-freq = 0.000000  C-freq = 0.045251     beta(Y;Y,Z) = beta(Y,Z,Y)
@ B-freq = 0.000000  C-freq = 0.045251     beta(Z;Y,Z) = beta(Z,Z,Y)
@ B-freq = 0.022625  C-freq = 0.045251     beta(X;Y,Z) = beta(X,Z,Y)
@ B-freq = 0.022625  C-freq = 0.045251     beta(Y;Y,Z) = beta(Y,Z,Y)
@ B-freq = 0.022625  C-freq = 0.045251     beta(Z;Y,Z) = beta(Z,Z,Y)
@ B-freq = 0.045251  C-freq = 0.045251     beta(X;Y,Z) = beta(X,Z,Y)
@ B-freq = 0.045251  C-freq = 0.045251     beta(Y;Y,Z) = beta(Y,Z,Y)
@ B-freq = 0.045251  C-freq = 0.045251     beta(Z;Y,Z) = beta(Z,Z,Y)
@ B-freq = 0.000000  C-freq = 0.045251     beta(X;Z,Z) = beta(X,Z,Z)
@ B-freq = 0.000000  C-freq = 0.045251     beta(Y;Z,Z) = beta(Y,Z,Z)
@ B-freq = 0.000000  C-freq = 0.045251     beta(Z;Z,Z) = beta(Z,Z,Z)
@ B-freq = 0.022625  C-freq = 0.045251     beta(X;Z,Z) = beta(X,Z,Z)
@ B-freq = 0.022625  C-freq = 0.045251     beta(Y;Z,Z) = beta(Y,Z,Z)
@ B-freq = 0.022625  C-freq = 0.045251     beta(Z;Z,Z) = beta(Z,Z,Z)
@ B-freq = 0.045251  C-freq = 0.045251     beta(X;Z,Z) =     24.65255387
@ B-freq = 0.045251  C-freq = 0.045251     beta(Y;Z,Z) =    -35.10939168
@ B-freq = 0.045251  C-freq = 0.045251     beta(Z;Z,Z) =     -0.00000000

  Total CPU  time used in RESPONSE:   5 hours 20 minutes 31 seconds
  Total wall time used in RESPONSE:   5 hours 21 minutes 59 seconds


                   .-------------------------------------------.
                   | End of Dynamic Property Section (RESPONS) |
                   `-------------------------------------------'

  Total CPU  time used in DALTON:   6 hours 11 minutes 45 seconds
  Total wall time used in DALTON:   6 hours 13 minutes 32 seconds

 
     Date and time (Linux)  : Tue May  6 05:12:59 2025
     Host name              : xm048                                   
