

     ************************************************************************
     *************** Dalton - An Electronic Structure Program ***************
     ************************************************************************

    This is output from DALTON release Dalton2020.0 (2020)
         ( Web site: http://daltonprogram.org )

   ----------------------------------------------------------------------------

    NOTE:
     
    Dalton is an experimental code for the evaluation of molecular
    properties using (MC)SCF, DFT, CI, and CC wave functions.
    The authors accept no responsibility for the performance of
    the code or for the correctness of the results.
     
    The code (in whole or part) is provided under a licence and
    is not to be reproduced for further distribution without
    the written permission of the authors or their representatives.
     
    See the home page "http://daltonprogram.org" for further information.
     
    If results obtained with this code are published,
    the appropriate citations would be both of:
     
       K. Aidas, C. Angeli, K. L. Bak, V. Bakken, R. Bast,
       L. Boman, O. Christiansen, R. Cimiraglia, S. Coriani,
       P. Dahle, E. K. Dalskov, U. Ekstroem,
       T. Enevoldsen, J. J. Eriksen, P. Ettenhuber, B. Fernandez,
       L. Ferrighi, H. Fliegl, L. Frediani, K. Hald, A. Halkier,
       C. Haettig, H. Heiberg, T. Helgaker, A. C. Hennum,
       H. Hettema, E. Hjertenaes, S. Hoest, I.-M. Hoeyvik,
       M. F. Iozzi, B. Jansik, H. J. Aa. Jensen, D. Jonsson,
       P. Joergensen, J. Kauczor, S. Kirpekar,
       T. Kjaergaard, W. Klopper, S. Knecht, R. Kobayashi, H. Koch,
       J. Kongsted, A. Krapp, K. Kristensen, A. Ligabue,
       O. B. Lutnaes, J. I. Melo, K. V. Mikkelsen, R. H. Myhre,
       C. Neiss, C. B. Nielsen, P. Norman, J. Olsen,
       J. M. H. Olsen, A. Osted, M. J. Packer, F. Pawlowski,
       T. B. Pedersen, P. F. Provasi, S. Reine, Z. Rinkevicius,
       T. A. Ruden, K. Ruud, V. Rybkin, P. Salek, C. C. M. Samson,
       A. Sanchez de Meras, T. Saue, S. P. A. Sauer,
       B. Schimmelpfennig, K. Sneskov, A. H. Steindal,
       K. O. Sylvester-Hvid, P. R. Taylor, A. M. Teale,
       E. I. Tellgren, D. P. Tew, A. J. Thorvaldsen, L. Thoegersen,
       O. Vahtras, M. A. Watson, D. J. D. Wilson, M. Ziolkowski
       and H. Agren,
       "The Dalton quantum chemistry program system",
       WIREs Comput. Mol. Sci. 2014, 4:269–284 (doi: 10.1002/wcms.1172)
     
    and
     
       Dalton, a molecular electronic structure program,
       Release Dalton2020.0 (2020), see http://daltonprogram.org
   ----------------------------------------------------------------------------

    Authors in alphabetical order (Major contribution(s) in parenthesis):

  Kestutis Aidas,           Vilnius University,           Lithuania   (QM/MM)
  Celestino Angeli,         University of Ferrara,        Italy       (NEVPT2)
  Keld L. Bak,              UNI-C,                        Denmark     (AOSOPPA, non-adiabatic coupling, magnetic properties)
  Vebjoern Bakken,          University of Oslo,           Norway      (DALTON; geometry optimizer, symmetry detection)
  Radovan Bast,             UiT The Arctic U. of Norway,  Norway      (DALTON installation and execution frameworks)
  Pablo Baudin,             University of Valencia,       Spain       (Cholesky excitation energies)
  Linus Boman,              NTNU,                         Norway      (Cholesky decomposition and subsystems)
  Bruno N. Cabral Tenorio,  Technical Univ. of Denmark,   Denmark     (Lanczos-based CC methods)
  Ove Christiansen,         Aarhus University,            Denmark     (CC module)
  Renzo Cimiraglia,         University of Ferrara,        Italy       (NEVPT2)
  Sonia Coriani,            Technical Univ. of Denmark,   Denmark     (CC and RESPONS modules)
  Janusz Cukras,            University of Warsaw,         Poland      (MChD in RESPONS)
  Paal Dahle,               University of Oslo,           Norway      (Parallelization)
  Erik K. Dalskov,          UNI-C,                        Denmark     (SOPPA)
  Thomas Enevoldsen,        Univ. of Southern Denmark,    Denmark     (SOPPA)
  Janus J. Eriksen,         Aarhus University,            Denmark     (Polarizable embedding, TDA)
  Rasmus Faber,             Technical Univ. of Denmark,   Denmark     (Vib.avg. NMR w. SOPPA, parallel AO-SOPPA, CVS-CC and EOMCC)
  Tobias Fahleson,          KTH Stockholm,                Sweden      (Damped cubic response)
  Berta Fernandez,          U. of Santiago de Compostela, Spain       (Doublet spin, ESR in RESPONS)
  Lara Ferrighi,            Aarhus University,            Denmark     (PCM Cubic response)
  Heike Fliegl,             University of Oslo,           Norway      (CCSD(R12))
  Luca Frediani,            UiT The Arctic U. of Norway,  Norway      (PCM)
  Emmanuel Fromager,        Univ. Strasbourg,             France      (MC-srDFT)
  Bin Gao,                  UiT The Arctic U. of Norway,  Norway      (Gen1Int library)
  Andre S. P. Gomes,        CNRS/Universite de Lille,     France      (Frozen density embedding)
  Christof Haettig,         Ruhr-University Bochum,       Germany     (CC module)
  Kasper Hald,              Aarhus University,            Denmark     (CC module)
  Asger Halkier,            Aarhus University,            Denmark     (CC module)
  Frederik Beyer Hansen,    University of Copenhagen,     Denmark     (Parallel AO-SOPPA)
  Erik D. Hedegaard,        Univ. of Southern Denmark,    Denmark     (Polarizable embedding, QM/MM, and MC-srDFT)
  Hanne Heiberg,            University of Oslo,           Norway      (Geometry analysis, selected one-electron integrals)
  Trygve Helgaker,          University of Oslo,           Norway      (DALTON; ABACUS, ERI, DFT modules, London, and much more)
  Alf Christian Hennum,     University of Oslo,           Norway      (Parity violation)
  Hinne Hettema,            University of Auckland,       New Zealand (Quadratic response in RESPONS; SIRIUS supersymmetry)
  Eirik Hjertenaes,         NTNU,                         Norway      (Cholesky decomposition)
  Pi A. B. Haase,           University of Copenhagen,     Denmark     (Triplet AO-SOPPA)
  Maria Francesca Iozzi,    University of Oslo,           Norway      (RPA)
  Christoph Jacob           TU Braunschweig               Germany     (Frozen density embedding)
  Brano Jansik              Technical Univ. of Ostrava    Czech Rep.  (DFT cubic response)
  Hans Joergen Aa. Jensen,  Univ. of Southern Denmark,    Denmark     (DALTON; SIRIUS, RESPONS, ABACUS, MC-srDFT, and much more)
  Dan Jonsson,              UiT The Arctic U. of Norway,  Norway      (Cubic response in RESPONS module)
  Poul Joergensen,          Aarhus University,            Denmark     (RESPONS, ABACUS, and CC modules)
  Maciej Kaminski,          University of Warsaw,         Poland      (CPPh in RESPONS)
  Joanna Kauczor,           Linkoeping University,        Sweden      (Complex polarization propagator (CPP) module)
  Sheela Kirpekar,          Univ. of Southern Denmark,    Denmark     (Mass-velocity & Darwin integrals)
  Erik Kjellgren,           Univ. of Southern Denmark,    Denmark     (MC-srDFT)
  Wim Klopper,              KIT Karlsruhe,                Germany     (R12 code in CC, SIRIUS, and ABACUS modules)
  Stefan Knecht,            ETH Zurich,                   Switzerland (Parallel CI and MCSCF, MC-srDFT)
  Rika Kobayashi,           Australian National Univ.,    Australia   (DIIS in CC, London in MCSCF)
  Henrik Koch,              NTNU,                         Norway      (CC module, Cholesky decomposition)
  Jacob Kongsted,           Univ. of Southern Denmark,    Denmark     (Polarizable embedding, polarizable density embedding, QM/MM)
  Andrea Ligabue,           University of Modena,         Italy       (CTOCD, AOSOPPA)
  Nanna H. List             Univ. of Southern Denmark,    Denmark     (Polarizable embedding)
  Ola B. Lutnaes,           University of Oslo,           Norway      (DFT Hessian)
  Juan I. Melo,             University of Buenos Aires,   Argentina   (LRESC, Relativistic Effects on NMR Shieldings)
  Kurt V. Mikkelsen,        University of Copenhagen,     Denmark     (MC-SCRF and QM/MM)
  Rolf H. Myhre,            NTNU,                         Norway      (Subsystems and CC3)
  Christian Neiss,          Univ. Erlangen-Nuernberg,     Germany     (CCSD(R12))
  Christian B. Nielsen,     University of Copenhagen,     Denmark     (QM/MM)
  Patrick Norman,           KTH Stockholm,                Sweden      (Cubic response and complex frequency response in RESPONS)
  Jeppe Olsen,              Aarhus University,            Denmark     (SIRIUS CI/density modules)
  Jogvan Magnus H. Olsen,   Aarhus University,            Denmark     (Polarizable embedding and polarizable density embedding)
  Anders Osted,             Copenhagen University,        Denmark     (QM/MM)
  Martin J. Packer,         University of Sheffield,      UK          (SOPPA)
  Filip Pawlowski,          Kazimierz Wielki University,  Poland      (CC3)
  Morten N. Pedersen,       Univ. of Southern Denmark,    Denmark     (Polarizable embedding)
  Thomas B. Pedersen,       University of Oslo,           Norway      (Cholesky decomposition)
  Patricio F. Provasi,      University of Northeastern,   Argentina   (Analysis of coupling constants in localized orbitals)
  Peter Reinholdt,          Univ. of Southern Denmark,    Denmark     (Polarizable embedding and polarizable density embedding)
  Zilvinas Rinkevicius,     KTH Stockholm,                Sweden      (open-shell DFT, ESR)
  Elias Rudberg,            KTH Stockholm,                Sweden      (DFT grid and basis info)
  Torgeir A. Ruden,         University of Oslo,           Norway      (Numerical derivatives in ABACUS)
  Kenneth Ruud,             UiT The Arctic U. of Norway,  Norway      (DALTON; ABACUS magnetic properties and much more)
  Pawel Salek,              KTH Stockholm,                Sweden      (DALTON; DFT code)
  Claire C. M. Samson       University of Karlsruhe       Germany     (Boys localization, r12 integrals in ERI)
  Alfredo Sanchez de Meras, University of Valencia,       Spain       (CC module, Cholesky decomposition)
  Trond Saue,               Paul Sabatier University,     France      (direct Fock matrix construction)
  Stephan P. A. Sauer,      University of Copenhagen,     Denmark     (SOPPA(CCSD), SOPPA prop., AOSOPPA, vibrational g-factors)
  Bernd Schimmelpfennig,    Forschungszentrum Karlsruhe,  Germany     (AMFI module)
  Anna K. Schnack-Petersen, University of Copenhagen,     Denmark     (RPA(D) and HRPA(D) properties in AOSOPPA)
  Kristian Sneskov,         Aarhus University,            Denmark     (Polarizable embedding, QM/MM)
  Arnfinn H. Steindal,      UiT The Arctic U. of Norway,  Norway      (parallel QM/MM, polarizable embedding)
  Casper Steinmann,         Aalborg University,           Denmark     (QFIT, polarizable embedding)
  K. O. Sylvester-Hvid,     University of Copenhagen,     Denmark     (MC-SCRF)
  Peter R. Taylor,          VLSCI/Univ. of Melbourne,     Australia   (Symmetry handling ABACUS, integral transformation)
  Andrew M. Teale,          University of Nottingham,     England     (DFT-AC, DFT-D)
  David P. Tew,             University of Bristol,        England     (CCSD(R12))
  Julien Toulouse,          Sorbonne Univ.,               France      (MC-srDFT)
  Olav Vahtras,             KTH Stockholm,                Sweden      (Triplet response, spin-orbit, ESR, TDDFT, open-shell DFT)
  Lucas Visscher,           Vrije Universiteit Amsterdam, Netherlands (Frozen density embedding)
  David J. Wilson,          La Trobe University,          Australia   (DFT Hessian and DFT magnetizabilities)
  Hans Agren,               KTH Stockholm,                Sweden      (SIRIUS module, RESPONS, MC-SCRF solvation)
 --------------------------------------------------------------------------------

     Date and time (Linux)  : Tue Apr 29 18:52:01 2025
     Host name              : xm028                                   

 * Work memory size             :    64000000 =  488.28 megabytes.

 * Directories for basis set searches:
   1) /gpfs/projects/rjh/adrian/summer2025/beta_projects/raw_data/NLO/dalton/hf/n8/excited-state
   2) /gpfs/projects/rjh/adrian/dalton/build/basis


Compilation information
-----------------------

 Who compiled             | ahurtado
 Host                     | milan2
 System                   | Linux-5.14.0-427.42.1.el9_4.x86_64
 CMake generator          | Unix Makefiles
 Processor                | x86_64
 64-bit integers          | OFF
 MPI                      | ON
 Fortran compiler         | /gpfs/software/openmpi/milan/gcc13.2/4.1.6/bin/mpi
                          | f90
 Fortran compiler version | GNU Fortran (GCC) 13.2.0
 C compiler               | /gpfs/software/openmpi/milan/gcc13.2/4.1.6/bin/mpi
                          | cc
 C compiler version       | gcc (GCC) 13.2.0
 C++ compiler             | /gpfs/software/openmpi/milan/gcc13.2/4.1.6/bin/mpi
                          | cxx
 C++ compiler version     | unknown
 BLAS                     | /gpfs/software/intel/oneAPI/2024_2/mkl/2024.2/lib/
                          | intel64/libmkl_gf_lp64.so;/gpfs/software/intel/one
                          | API/2024_2/mkl/2024.2/lib/intel64/libmkl_sequentia
                          | l.so;/gpfs/software/intel/oneAPI/2024_2/mkl/2024.2
                          | /lib/intel64/libmkl_core.so;/usr/lib64/libpthread.
                          | a;/usr/lib64/libm.so
 LAPACK                   | /gpfs/software/intel/oneAPI/2024_2/mkl/2024.2/lib/
                          | intel64/libmkl_lapack95_lp64.a;/gpfs/software/inte
                          | l/oneAPI/2024_2/mkl/2024.2/lib/intel64/libmkl_gf_l
                          | p64.so
 Static linking           | OFF
 Last Git revision        | 66052b3af5ea7225e31178bf9a8b031913c72190
 Git branch               | (HEAD detached at Dalton2020.0)
 Configuration time       | 2025-04-10 16:02:31.569498

 * MPI parallel run using 192 processes.


   Content of the .dal input file
 ----------------------------------

**DALTON INPUT
.RUN PROPERTIES
.DIRECT
**WAVE FUNCTIONS
.HF
**PROPERTIES
.EXCITA
*EXCITA
.NEXCIT
   4  4  4  4  4  4  4  4  4  4
**END OF DALTON INPUT


   Content of the .mol file
 ----------------------------

BASIS
aug-cc-pVTZ
blah
blah
Atomtype=4 Angstrom Charge=0 Nosymmetry
Charge=6 Atoms=16
C_a 1.6519229998176075 -8.049175002179144 0.0
C_b 1.9444589988455454 -6.728077999620022 0.0
C_c 0.9366040010539604 -5.690966000374534 0.0
C_d 1.2516239989151714 -4.3572310024581675 0.0
C_e 0.27660000195709034 -3.2955410025308343 0.0
C_f 0.6103160000079801 -1.9627990003585178 0.0
C_g -0.34819400077912716 -0.8893029986516443 0.0
C_h 0.0 0.44131100203631646 0.0
C_i -0.9456049984846748 1.5250140013287934 0.0
C_j -0.5837860021820497 2.8524229979061544 0.0
C_k -1.5159250017279444 3.9479510017318074 0.0
C_l -1.1372629986153835 5.270107999161623 0.0
C_m -2.0506620021783046 6.382867002528075 0.0
C_n -1.644438999988493 7.694968997942507 0.0
C_o -2.523165000348833 8.836908002186938 0.0
C_p -2.048411998888029 10.121828000534174 0.0
Charge=7 Atoms=2
N_a -2.8041959988864313 11.262344999778092 0.0
N_b 2.7078260024374066 -9.054929002399435 0.0
Charge=8 Atoms=2
O_a 2.323730000259234 -10.230869002414845 0.0
O_b 3.8840309985246044 -8.68481800029295 0.0
Charge=1 Atoms=18
H_a 0.6520620016836924 -8.487247000469075 0.0
H_b 3.0029160011878337 -6.440803001043983 0.0
H_c -0.1199049994321818 -5.991733001657485 0.0
H_d 2.3134169978947887 -4.069848998958359 0.0
H_e -0.7863270026179043 -3.5764360025252904 0.0
H_f 1.676177001168674 -1.6897610013336615 0.0
H_g -1.4149200003001545 -1.1563959986374055 0.0
H_h 1.0690499976606709 0.702059998074365 0.0
H_i -2.0153140016928814 1.2696639992838707 0.0
H_j 0.4883619999572235 3.1008549974829505 0.0
H_k -2.588692998470783 3.705754000889098 0.0
H_l -0.061098001686370085 5.5019949980746725 0.0
H_m -3.127446999002655 6.160261999436378 0.0
H_n -0.5619530024451147 7.897245002306574 0.0
H_o -3.6077729985069977 8.662572999055104 0.0
H_p -0.9650279982016882 10.295662999994963 0.0
H_q -3.8139179973785255 11.215004002162194 0.0
H_r -2.3715529989374713 12.17301699971304 0.0


       *******************************************************************
       *********** Output from DALTON general input processing ***********
       *******************************************************************

 --------------------------------------------------------------------------------
   Overall default print level:    0
   Print level for DALTON.STAT:    1

    Parallel calculation using MPI
    AO-direct calculation (in sections where implemented)
    HERMIT 1- and 2-electron integral sections will be executed
    "Old" integral transformation used (limited to max 255 basis functions)
    Wave function sections will be executed (SIRIUS module)
    Static molecular property section will be executed (ABACUS module)
 --------------------------------------------------------------------------------


   ****************************************************************************
   *************** Output of molecule and basis set information ***************
   ****************************************************************************


    The two title cards from your ".mol" input:
    ------------------------------------------------------------------------
 1: blah                                                                    
 2: blah                                                                    
    ------------------------------------------------------------------------

  Coordinates are entered in Angstrom and converted to atomic units.
          - Conversion factor : 1 bohr = 0.52917721 A

  Atomic type no.    1
  --------------------
  Nuclear charge:   6.00000
  Number of symmetry independent centers:   16
  Number of basis sets to read;    2
  Basis set file used for this atomic type with Z =   6 :
     "/gpfs/projects/rjh/adrian/dalton/build/basis/aug-cc-pVTZ"

  Atomic type no.    2
  --------------------
  Nuclear charge:   7.00000
  Number of symmetry independent centers:    2
  Number of basis sets to read;    2
  Basis set file used for this atomic type with Z =   7 :
     "/gpfs/projects/rjh/adrian/dalton/build/basis/aug-cc-pVTZ"

  Atomic type no.    3
  --------------------
  Nuclear charge:   8.00000
  Number of symmetry independent centers:    2
  Number of basis sets to read;    2
  Basis set file used for this atomic type with Z =   8 :
     "/gpfs/projects/rjh/adrian/dalton/build/basis/aug-cc-pVTZ"

  Atomic type no.    4
  --------------------
  Nuclear charge:   1.00000
  Number of symmetry independent centers:   18
  Number of basis sets to read;    2
  Basis set file used for this atomic type with Z =   1 :
     "/gpfs/projects/rjh/adrian/dalton/build/basis/aug-cc-pVTZ"


                         SYMGRP: Point group information
                         -------------------------------

@    Point group: C1 


                                 Isotopic Masses
                                 ---------------

                           C_a        12.000000
                           C_b        12.000000
                           C_c        12.000000
                           C_d        12.000000
                           C_e        12.000000
                           C_f        12.000000
                           C_g        12.000000
                           C_h        12.000000
                           C_i        12.000000
                           C_j        12.000000
                           C_k        12.000000
                           C_l        12.000000
                           C_m        12.000000
                           C_n        12.000000
                           C_o        12.000000
                           C_p        12.000000
                           N_a        14.003074
                           N_b        14.003074
                           O_a        15.994915
                           O_b        15.994915
                           H_a         1.007825
                           H_b         1.007825
                           H_c         1.007825
                           H_d         1.007825
                           H_e         1.007825
                           H_f         1.007825
                           H_g         1.007825
                           H_h         1.007825
                           H_i         1.007825
                           H_j         1.007825
                           H_k         1.007825
                           H_l         1.007825
                           H_m         1.007825
                           H_n         1.007825
                           H_o         1.007825
                           H_p         1.007825
                           H_q         1.007825
                           H_r         1.007825

                       Total mass:   270.136828 amu
                       Natural abundance:  82.539 %

 Center-of-mass coordinates (a.u.):    0.084675   -0.271854    0.000000
 Center-of-mass coordinates (Angs):    0.044808   -0.143859    0.000000


  Atoms and basis sets
  --------------------

  Number of atom types :    4
  Total number of atoms:   38

  Basis set used is "aug-cc-pVTZ" from the basis set library.

  label    atoms   charge   prim   cont     basis
  ----------------------------------------------------------------------
  C_         16    6.0000    58    46      [11s6p3d2f|5s4p3d2f]                               
  N_          2    7.0000    58    46      [11s6p3d2f|5s4p3d2f]                               
  O_          2    8.0000    58    46      [11s6p3d2f|5s4p3d2f]                               
  H_         18    1.0000    25    23      [6s3p2d|4s3p2d]                                    
  ----------------------------------------------------------------------
  total:     38  144.0000  1610  1334
  ----------------------------------------------------------------------
  Spherical harmonic basis used.

  Threshold for neglecting AO integrals:  1.00D-12

  Max    interatomic separation is   22.8906 Angstrom (   43.2570 Bohr)
  between atoms   38 and   19, "H_r   " and "O_a   ".

  Min HX interatomic separation is    1.0082 Angstrom (    1.9053 Bohr)

  Min YX interatomic separation is    1.2331 Angstrom (    2.3301 Bohr)


  Bond distances (Angstrom):
  --------------------------

                  atom 1     atom 2       distance
                  ------     ------       --------
  bond distance:  C_b        C_a          1.353098
  bond distance:  C_c        C_b          1.446158
  bond distance:  C_d        C_c          1.370433
  bond distance:  C_e        C_d          1.441478
  bond distance:  C_f        C_e          1.373888
  bond distance:  C_g        C_f          1.439144
  bond distance:  C_h        C_g          1.375417
  bond distance:  C_i        C_h          1.438256
  bond distance:  C_j        C_i          1.375837
  bond distance:  C_k        C_j          1.438424
  bond distance:  C_l        C_k          1.375312
  bond distance:  C_m        C_l          1.439629
  bond distance:  C_n        C_m          1.373546
  bond distance:  C_o        C_n          1.440897
  bond distance:  C_p        C_o          1.369821
  bond distance:  N_a        C_p          1.368206
  bond distance:  N_b        C_a          1.458243
  bond distance:  O_a        N_b          1.237079
  bond distance:  O_b        N_b          1.233061
  bond distance:  H_a        C_a          1.091618
  bond distance:  H_b        C_b          1.096749
  bond distance:  H_c        C_c          1.098486
  bond distance:  H_d        C_d          1.099997
  bond distance:  H_e        C_e          1.099416
  bond distance:  H_f        C_f          1.100277
  bond distance:  H_g        C_g          1.099656
  bond distance:  H_h        C_h          1.100390
  bond distance:  H_i        C_i          1.099764
  bond distance:  H_j        C_j          1.100554
  bond distance:  H_k        C_k          1.099768
  bond distance:  H_l        C_l          1.100865
  bond distance:  H_m        C_m          1.099554
  bond distance:  H_n        C_n          1.101223
  bond distance:  H_o        C_o          1.098530
  bond distance:  H_p        C_p          1.097242
  bond distance:  H_q        N_a          1.010831
  bond distance:  H_r        N_a          1.008218


  Bond angles (degrees):
  ----------------------

                  atom 1     atom 2     atom 3         angle
                  ------     ------     ------         -----
  bond angle:     C_b        C_a        N_b          121.121
  bond angle:     C_b        C_a        H_a          126.146
  bond angle:     N_b        C_a        H_a          112.734
  bond angle:     C_a        C_b        C_c          123.334
  bond angle:     C_a        C_b        H_b          117.671
  bond angle:     C_c        C_b        H_b          118.996
  bond angle:     C_b        C_c        C_d          122.530
  bond angle:     C_b        C_c        H_c          118.290
  bond angle:     C_d        C_c        H_c          119.180
  bond angle:     C_c        C_d        C_e          124.147
  bond angle:     C_c        C_d        H_d          118.434
  bond angle:     C_e        C_d        H_d          117.419
  bond angle:     C_d        C_e        C_f          123.379
  bond angle:     C_d        C_e        H_e          117.761
  bond angle:     C_f        C_e        H_e          118.861
  bond angle:     C_e        C_f        C_g          124.181
  bond angle:     C_e        C_f        H_f          118.426
  bond angle:     C_g        C_f        H_f          117.393
  bond angle:     C_f        C_g        C_h          123.574
  bond angle:     C_f        C_g        H_g          117.704
  bond angle:     C_h        C_g        H_g          118.721
  bond angle:     C_g        C_h        C_i          124.229
  bond angle:     C_g        C_h        H_h          118.372
  bond angle:     C_i        C_h        H_h          117.400
  bond angle:     C_h        C_i        C_j          123.646
  bond angle:     C_h        C_i        H_i          117.681
  bond angle:     C_j        C_i        H_i          118.673
  bond angle:     C_i        C_j        C_k          124.360
  bond angle:     C_i        C_j        H_j          118.293
  bond angle:     C_k        C_j        H_j          117.347
  bond angle:     C_j        C_k        C_l          123.625
  bond angle:     C_j        C_k        H_k          117.671
  bond angle:     C_l        C_k        H_k          118.704
  bond angle:     C_k        C_l        C_m          124.638
  bond angle:     C_k        C_l        H_l          118.141
  bond angle:     C_m        C_l        H_l          117.221
  bond angle:     C_l        C_m        C_n          123.417
  bond angle:     C_l        C_m        H_m          117.700
  bond angle:     C_n        C_m        H_m          118.883
  bond angle:     C_m        C_n        C_o          125.219
  bond angle:     C_m        C_n        H_n          117.787
  bond angle:     C_o        C_n        H_n          116.994
  bond angle:     C_n        C_o        C_p          122.143
  bond angle:     C_n        C_o        H_o          118.447
  bond angle:     C_p        C_o        H_o          119.410
  bond angle:     C_o        C_p        N_a          126.191
  bond angle:     C_o        C_p        H_p          119.394
  bond angle:     N_a        C_p        H_p          114.415
  bond angle:     C_p        N_a        H_q          120.847
  bond angle:     C_p        N_a        H_r          121.057
  bond angle:     H_q        N_a        H_r          118.096
  bond angle:     C_a        N_b        O_a          115.518
  bond angle:     C_a        N_b        O_b          118.926
  bond angle:     O_a        N_b        O_b          125.556




 Principal moments of inertia (u*A**2) and principal axes
 --------------------------------------------------------

   IA     106.400601         -0.256912    0.966435    0.000000
   IB   13629.472743          0.966435    0.256912    0.000000
   IC   13735.873344          0.000000    0.000000    1.000000


 Rotational constants
 --------------------

@    The molecule is planar.

               A                   B                   C

           4749.7759             37.0799             36.7926 MHz
            0.158435            0.001237            0.001227 cm-1


@  Nuclear repulsion energy : 1124.842995138595 Hartree


                     .---------------------------------------.
                     | Starting in Integral Section (HERMIT) |
                     `---------------------------------------'



 ***************************************************************************************
 ****************** Output from **INTEGRALS input processing (HERMIT) ******************
 ***************************************************************************************


 - Using defaults, no **INTEGRALS input found

 Default print level:        1

 Calculation of one-electron Hamiltonian integrals.

 Center of mass  (bohr):      0.084675424180     -0.271853977243      0.000000000000
 Operator center (bohr):      0.000000000000      0.000000000000      0.000000000000
 Gauge origin    (bohr):      0.000000000000      0.000000000000      0.000000000000
 Dipole origin   (bohr):      0.000000000000      0.000000000000      0.000000000000


     ************************************************************************
     ************************** Output from HERINT **************************
     ************************************************************************



                      Nuclear contribution to dipole moments
                      --------------------------------------

                 au               Debye          C m (/(10**-30)

      x      0.00000567         0.00001441         0.00004807
      y     -0.00000199        -0.00000506        -0.00001687
      z      0.00000000         0.00000000         0.00000000


  Time used in ONEDRV     is       2.93 seconds
  Time used in HUCKEL     is       0.69 seconds
  Time used in OVERLAP    is       0.37 seconds
  Time used in POPOVLP    is       0.72 seconds
  Time used in R2         is       0.46 seconds
  Time used in R4         is       0.54 seconds
  Time used in DIPLEN     is       0.62 seconds
  Time used in QUADRUP    is       1.24 seconds
  Time used in KINENE     is       0.63 seconds
  Time used in GABGEN     is       3.68 seconds
  Total CPU  time used in HERMIT:  11.90 seconds
  Total wall time used in HERMIT:  12.06 seconds


                        .----------------------------------.
                        | End of Integral Section (HERMIT) |
                        `----------------------------------'



                   .--------------------------------------------.
                   | Starting in Wave Function Section (SIRIUS) |
                   `--------------------------------------------'



@ Primary orbitals are deleted during canonical orthonormalization
@   because of detected numerical linear dependence or too large coefficients.
@ Eigenvalue threshold for num. lin. dep. =  1.00D-06

@   5 MO components are deleted in symmetry    1
 Overlap eigenvalues of the deleted orbitals:
  7.44D-07  6.92D-07  5.91D-07  3.82D-07  9.64D-08

 Max MO coeff. of last deleted MO & limit:  3.65D+02  1.00D+03

WARNING: Orbitals have been deleted because of numerical
   linear dependence although not requested in input.

 *** Output from Huckel module :

     Using EWMO model:          T
     Using EHT  model:          F
     Number of Huckel orbitals each symmetry:  118

 EWMO - Energy Weighted Maximum Overlap - is a Huckel type method,
        which normally is better than Extended Huckel Theory.
 Reference: Linderberg and Ohrn, Propagators in Quantum Chemistry (Wiley, 1973)

 Huckel EWMO eigenvalues for symmetry :  1
          -20.684752     -20.683494     -15.677079     -15.674967     -11.359307
          -11.359266     -11.358906     -11.358593     -11.357325     -11.355507
          -11.353426     -11.351440     -11.348398     -11.347250     -11.346283
          -11.345667     -11.345449     -11.345400     -11.345246     -11.345227
           -1.964065      -1.791926      -1.782678      -1.755573      -1.701620
           -1.617914      -1.510222      -1.444708      -1.381225      -1.253330
           -1.201590      -1.154517      -1.127543      -1.083590      -1.015880
           -0.988337      -0.927502      -0.887204      -0.852017      -0.846774
           -0.822695      -0.776281      -0.748511      -0.742719      -0.741154
           -0.691295      -0.685733      -0.664159      -0.634185      -0.633128
           -0.606804      -0.586000      -0.583835      -0.570952      -0.552233
           -0.539569      -0.520624      -0.513914      -0.510557      -0.496194
           -0.493338      -0.486689      -0.484633      -0.477852      -0.476338
           -0.474917      -0.453982      -0.434481      -0.404414      -0.395254
           -0.368300      -0.363568      -0.335252      -0.295149      -0.266773
           -0.243802      -0.229156      -0.226082      -0.213043      -0.203946
           -0.200991      -0.198050      -0.194756      -0.190554      -0.166609
           -0.142744      -0.138877      -0.133593      -0.131413      -0.131078
           -0.129945      -0.129497      -0.129429      -0.128444      -0.127646
           -0.127087      -0.126593      -0.126145      -0.125008      -0.124537
           -0.123965      -0.123214      -0.111649      -0.109435      -0.105607
           -0.102379      -0.098860      -0.095905      -0.092761      -0.091358
           -0.088590      -0.087964      -0.086082      -0.085619      -0.084136
           -0.082272      -0.080515      -0.079387

 **********************************************************************
 *SIRIUS* a direct, restricted step, second order MCSCF program       *
 **********************************************************************

 
     Date and time (Linux)  : Tue Apr 29 18:54:21 2025
     Host name              : xm028                                   

 Title lines from ".mol" input file:
     blah                                                                    
     blah                                                                    

 Print level on unit LUPRI =   2 is   0
 Print level on unit LUW4  =   2 is   5

@    Restricted, closed shell Hartree-Fock calculation.
 Fock matrices are calculated directly and in parallel without use of integrals on disk.

 Initial molecular orbitals are obtained according to
 ".MOSTART EWMO  " input option

     Wave function specification
     ============================
@    Wave function type        --- HF ---
@    Number of closed shell electrons         144
@    Number of electrons in active shells       0
@    Total charge of the molecule               0

@    Spin multiplicity and 2 M_S                1         0
@    Total number of symmetries                 1 (point group: C1 )
@    Reference state symmetry                   1 (irrep name : A  )

     Orbital specifications
     ======================
@    Abelian symmetry species          All |    1
@                                          |  A  
                                       --- |  ---
@    Occupied SCF orbitals              72 |   72
@    Secondary orbitals               1257 | 1257
@    Total number of orbitals         1329 | 1329
@    Number of basis functions        1334 | 1334

     Optimization information
     ========================
@    Number of configurations                 1
@    Number of orbital rotations          90504
     ------------------------------------------
@    Total number of variables            90505

     Maximum number of Fock   iterations      0
     Maximum number of DIIS   iterations     60
     Maximum number of QC-SCF iterations     60
     Threshold for SCF convergence     1.00D-05


 ***********************************************
 ***** DIIS acceleration of SCF iterations *****
 ***********************************************

 C1-DIIS algorithm; max error vectors =    8

 Iter      Total energy        Error norm    Delta(E)  DIIS dim.
 -----------------------------------------------------------------------------
   1  Screening settings (-IFTHRS, JTDIIS, DIFDEN, times)  -10    1    T  4.47D+01  4.49D+01
@  1    -871.653132117        7.28544D+00   -8.72D+02    1
      Virial theorem: -V/T =      2.010060
@    MULPOP   C_a     0.19; C_b    -0.04; C_c    -0.06; C_d    -0.01; C_e    -0.02; C_f     0.08; C_g     0.03; C_h     0.09; C_i     0.00; C_j     0.09; 
@             C_k    -0.02; C_l     0.05; C_m    -0.15; C_n    -0.03; C_o    -0.07; C_p     0.34; N_a    -0.68; N_b     0.68; O_a    -0.90; O_b    -0.95; 
@             H_a     0.31; H_b     0.08; H_c     0.06; H_d     0.01; H_e    -0.01; H_f    -0.02; H_g    -0.00; H_h    -0.02; H_i    -0.01; H_j    -0.02; 
@    MULPOP    dipole moment & components:     24.7374;       -8.5377     23.2174      0.0000
   1  Level shift: doubly occupied orbital energies shifted by -2.00D-01
 -----------------------------------------------------------------------------
   2  Screening settings (-IFTHRS, JTDIIS, DIFDEN, times)  -10    2    T  4.14D+01  4.16D+01
@  2    -874.557174430        2.96377D+00   -2.90D+00    2
      Virial theorem: -V/T =      2.001053
@    MULPOP   C_a    -0.86; C_b     0.23; C_c    -0.07; C_d     0.12; C_e    -0.04; C_f    -0.02; C_g    -0.01; C_h    -0.11; C_i    -0.13; C_j    -0.00; 
@             C_k    -0.02; C_l     0.06; C_m    -0.01; C_n     0.07; C_o     0.16; C_p    -0.52; N_a    -0.54; N_b     0.24; O_a    -0.20; O_b    -0.33; 
@             H_a     0.56; H_b     0.24; H_c     0.05; H_d     0.01; H_e     0.00; H_f     0.01; H_g    -0.02; H_h    -0.04; H_i    -0.05; H_j    -0.03; 
@    MULPOP    dipole moment & components:      9.1831;       -2.2967      8.8913      0.0000
   2  Level shift: doubly occupied orbital energies shifted by -1.00D-01
 -----------------------------------------------------------------------------
   3  Screening settings (-IFTHRS, JTDIIS, DIFDEN, times)  -10    3    T  3.97D+01  3.99D+01
@  3    -874.988330190        9.37878D-01   -4.31D-01    3
      Virial theorem: -V/T =      2.001606
@    MULPOP   C_a    -0.60; C_b     0.23; C_c    -0.06; C_d     0.11; C_e    -0.06; C_f    -0.04; C_g    -0.07; C_h    -0.13; C_i    -0.17; C_j    -0.04; 
@             C_k    -0.09; C_l     0.03; C_m    -0.08; C_n     0.08; C_o     0.03; C_p    -0.41; N_a    -0.53; N_b     0.91; O_a    -0.74; O_b    -0.72; 
@             H_a     0.53; H_b     0.26; H_c     0.06; H_d     0.04; H_e     0.04; H_f     0.05; H_g     0.02; H_h     0.02; H_i     0.00; H_j     0.02; 
@    MULPOP    dipole moment & components:      8.2187;       -2.1820      7.9238      0.0000
   3  Level shift: doubly occupied orbital energies shifted by -5.00D-02
 -----------------------------------------------------------------------------
   4  Screening settings (-IFTHRS, JTDIIS, DIFDEN, times)  -10    4    T  3.88D+01  3.90D+01
@  4    -875.044266621        2.77880D-01   -5.59D-02    4
      Virial theorem: -V/T =      2.003411
@    MULPOP   C_a    -0.66; C_b     0.21; C_c    -0.08; C_d     0.13; C_e    -0.08; C_f    -0.02; C_g    -0.08; C_h    -0.12; C_i    -0.17; C_j    -0.05; 
@             C_k    -0.09; C_l     0.04; C_m    -0.09; C_n     0.10; C_o    -0.00; C_p    -0.38; N_a    -0.54; N_b     0.73; O_a    -0.63; O_b    -0.67; 
@             H_a     0.54; H_b     0.31; H_c     0.08; H_d     0.06; H_e     0.05; H_f     0.06; H_g     0.03; H_h     0.02; H_i     0.01; H_j     0.03; 
@    MULPOP    dipole moment & components:      7.4866;       -1.9026      7.2408      0.0000
   4  Level shift: doubly occupied orbital energies shifted by -2.50D-02
 -----------------------------------------------------------------------------
   5  Screening settings (-IFTHRS, JTDIIS, DIFDEN, times)  -10    5    T  3.75D+01  3.77D+01
@  5    -875.055341187        1.14912D-01   -1.11D-02    5
      Virial theorem: -V/T =      2.002730
@    MULPOP   C_a    -0.64; C_b     0.20; C_c    -0.09; C_d     0.11; C_e    -0.09; C_f    -0.04; C_g    -0.10; C_h    -0.13; C_i    -0.18; C_j    -0.06; 
@             C_k    -0.10; C_l     0.03; C_m    -0.10; C_n     0.09; C_o    -0.01; C_p    -0.39; N_a    -0.56; N_b     0.78; O_a    -0.66; O_b    -0.66; 
@             H_a     0.54; H_b     0.32; H_c     0.09; H_d     0.07; H_e     0.07; H_f     0.08; H_g     0.04; H_h     0.03; H_i     0.02; H_j     0.04; 
@    MULPOP    dipole moment & components:      6.9048;       -1.5995      6.7170      0.0000
   5  Level shift: doubly occupied orbital energies shifted by -1.25D-02
 -----------------------------------------------------------------------------
   6  Screening settings (-IFTHRS, JTDIIS, DIFDEN, times)  -14    6    F  4.83D+01  4.87D+01
@  6    -875.058437858        5.87045D-02   -3.10D-03    6
      Virial theorem: -V/T =      2.002593
@    MULPOP   C_a    -0.65; C_b     0.21; C_c    -0.09; C_d     0.12; C_e    -0.09; C_f    -0.04; C_g    -0.10; C_h    -0.13; C_i    -0.19; C_j    -0.06; 
@             C_k    -0.10; C_l     0.03; C_m    -0.11; C_n     0.09; C_o    -0.01; C_p    -0.39; N_a    -0.56; N_b     0.77; O_a    -0.65; O_b    -0.67; 
@             H_a     0.54; H_b     0.33; H_c     0.09; H_d     0.08; H_e     0.07; H_f     0.08; H_g     0.04; H_h     0.04; H_i     0.02; H_j     0.04; 
@    MULPOP    dipole moment & components:      6.5514;       -1.5081      6.3754      0.0000
   6  Level shift: doubly occupied orbital energies shifted by -1.25D-02
 -----------------------------------------------------------------------------
   7  Screening settings (-IFTHRS, JTDIIS, DIFDEN, times)  -14    7    T  4.53D+01  4.56D+01
@  7    -875.059402975        2.78582D-02   -9.65D-04    7
      Virial theorem: -V/T =      2.002630
@    MULPOP   C_a    -0.65; C_b     0.20; C_c    -0.10; C_d     0.12; C_e    -0.09; C_f    -0.04; C_g    -0.10; C_h    -0.13; C_i    -0.18; C_j    -0.06; 
@             C_k    -0.10; C_l     0.03; C_m    -0.10; C_n     0.09; C_o    -0.01; C_p    -0.40; N_a    -0.57; N_b     0.77; O_a    -0.65; O_b    -0.66; 
@             H_a     0.54; H_b     0.33; H_c     0.08; H_d     0.08; H_e     0.07; H_f     0.08; H_g     0.04; H_h     0.04; H_i     0.02; H_j     0.04; 
@    MULPOP    dipole moment & components:      6.3349;       -1.4091      6.1762      0.0000
 -----------------------------------------------------------------------------
   8  Screening settings (-IFTHRS, JTDIIS, DIFDEN, times)  -14    8    T  4.47D+01  4.50D+01
@  8    -875.059637841        1.20936D-02   -2.35D-04    8
      Virial theorem: -V/T =      2.002626
@    MULPOP   C_a    -0.65; C_b     0.20; C_c    -0.10; C_d     0.12; C_e    -0.09; C_f    -0.04; C_g    -0.10; C_h    -0.14; C_i    -0.18; C_j    -0.06; 
@             C_k    -0.10; C_l     0.03; C_m    -0.10; C_n     0.09; C_o    -0.01; C_p    -0.40; N_a    -0.57; N_b     0.77; O_a    -0.65; O_b    -0.66; 
@             H_a     0.54; H_b     0.33; H_c     0.08; H_d     0.08; H_e     0.07; H_f     0.08; H_g     0.04; H_h     0.04; H_i     0.02; H_j     0.04; 
@    MULPOP    dipole moment & components:      6.1425;       -1.3705      5.9877      0.0000
 -----------------------------------------------------------------------------
   9  Screening settings (-IFTHRS, JTDIIS, DIFDEN, times)  -14    9    T  4.39D+01  4.41D+01
@  9    -875.059671641        4.69498D-03   -3.38D-05    8
      Virial theorem: -V/T =      2.002616
@    MULPOP   C_a    -0.65; C_b     0.20; C_c    -0.10; C_d     0.12; C_e    -0.09; C_f    -0.04; C_g    -0.10; C_h    -0.14; C_i    -0.18; C_j    -0.06; 
@             C_k    -0.10; C_l     0.03; C_m    -0.10; C_n     0.09; C_o    -0.01; C_p    -0.40; N_a    -0.57; N_b     0.77; O_a    -0.65; O_b    -0.66; 
@             H_a     0.54; H_b     0.33; H_c     0.08; H_d     0.08; H_e     0.07; H_f     0.08; H_g     0.04; H_h     0.04; H_i     0.02; H_j     0.04; 
@    MULPOP    dipole moment & components:      6.0601;       -1.3525      5.9072      0.0000
 -----------------------------------------------------------------------------
  10  Screening settings (-IFTHRS, JTDIIS, DIFDEN, times)  -14   10    T  4.35D+01  4.38D+01
@ 10    -875.059679784        2.64343D-03   -8.14D-06    8
      Virial theorem: -V/T =      2.002617
@    MULPOP   C_a    -0.65; C_b     0.20; C_c    -0.10; C_d     0.12; C_e    -0.09; C_f    -0.04; C_g    -0.10; C_h    -0.14; C_i    -0.18; C_j    -0.06; 
@             C_k    -0.10; C_l     0.03; C_m    -0.10; C_n     0.09; C_o    -0.01; C_p    -0.40; N_a    -0.57; N_b     0.77; O_a    -0.65; O_b    -0.66; 
@             H_a     0.54; H_b     0.33; H_c     0.08; H_d     0.08; H_e     0.07; H_f     0.08; H_g     0.04; H_h     0.04; H_i     0.02; H_j     0.04; 
@    MULPOP    dipole moment & components:      6.0013;       -1.3482      5.8479      0.0000
 -----------------------------------------------------------------------------
  11  Screening settings (-IFTHRS, JTDIIS, DIFDEN, times)  -14   11    T  4.28D+01  4.30D+01
@ 11    -875.059682888        1.57197D-03   -3.10D-06    8
      Virial theorem: -V/T =      2.002618
@    MULPOP   C_a    -0.65; C_b     0.20; C_c    -0.10; C_d     0.12; C_e    -0.09; C_f    -0.04; C_g    -0.10; C_h    -0.14; C_i    -0.18; C_j    -0.06; 
@             C_k    -0.09; C_l     0.03; C_m    -0.10; C_n     0.09; C_o    -0.00; C_p    -0.40; N_a    -0.57; N_b     0.77; O_a    -0.65; O_b    -0.66; 
@             H_a     0.54; H_b     0.33; H_c     0.08; H_d     0.08; H_e     0.07; H_f     0.08; H_g     0.04; H_h     0.04; H_i     0.02; H_j     0.04; 
@    MULPOP    dipole moment & components:      5.9595;       -1.3464      5.8055      0.0000
 -----------------------------------------------------------------------------
  12  Screening settings (-IFTHRS, JTDIIS, DIFDEN, times)  -14   12    T  4.26D+01  4.29D+01
@ 12    -875.059684040        5.18512D-04   -1.15D-06    8
      Virial theorem: -V/T =      2.002617
@    MULPOP   C_a    -0.65; C_b     0.20; C_c    -0.10; C_d     0.12; C_e    -0.09; C_f    -0.04; C_g    -0.10; C_h    -0.14; C_i    -0.18; C_j    -0.06; 
@             C_k    -0.09; C_l     0.03; C_m    -0.10; C_n     0.09; C_o    -0.00; C_p    -0.40; N_a    -0.57; N_b     0.77; O_a    -0.65; O_b    -0.66; 
@             H_a     0.54; H_b     0.33; H_c     0.08; H_d     0.08; H_e     0.07; H_f     0.08; H_g     0.04; H_h     0.04; H_i     0.02; H_j     0.04; 
@    MULPOP    dipole moment & components:      5.9259;       -1.3458      5.7711      0.0000
 -----------------------------------------------------------------------------
  13  Screening settings (-IFTHRS, JTDIIS, DIFDEN, times)  -14   13    T  4.16D+01  4.19D+01
@ 13    -875.059684167        2.10235D-04   -1.27D-07    8
      Virial theorem: -V/T =      2.002617
@    MULPOP   C_a    -0.65; C_b     0.20; C_c    -0.10; C_d     0.12; C_e    -0.09; C_f    -0.04; C_g    -0.10; C_h    -0.14; C_i    -0.18; C_j    -0.06; 
@             C_k    -0.09; C_l     0.03; C_m    -0.10; C_n     0.09; C_o    -0.00; C_p    -0.40; N_a    -0.57; N_b     0.77; O_a    -0.65; O_b    -0.66; 
@             H_a     0.54; H_b     0.33; H_c     0.08; H_d     0.08; H_e     0.07; H_f     0.08; H_g     0.04; H_h     0.04; H_i     0.02; H_j     0.04; 
@    MULPOP    dipole moment & components:      5.9139;       -1.3457      5.7588      0.0000
 -----------------------------------------------------------------------------
  14  Screening settings (-IFTHRS, JTDIIS, DIFDEN, times)  -14   14    T  4.00D+01  4.03D+01
@ 14    -875.059684176        9.43519D-05   -9.58D-09    8
      Virial theorem: -V/T =      2.002617
@    MULPOP   C_a    -0.65; C_b     0.20; C_c    -0.10; C_d     0.12; C_e    -0.09; C_f    -0.04; C_g    -0.10; C_h    -0.14; C_i    -0.18; C_j    -0.06; 
@             C_k    -0.09; C_l     0.03; C_m    -0.10; C_n     0.09; C_o    -0.00; C_p    -0.40; N_a    -0.57; N_b     0.77; O_a    -0.65; O_b    -0.66; 
@             H_a     0.54; H_b     0.33; H_c     0.08; H_d     0.08; H_e     0.07; H_f     0.08; H_g     0.04; H_h     0.04; H_i     0.02; H_j     0.04; 
@    MULPOP    dipole moment & components:      5.9121;       -1.3458      5.7569      0.0000
 -----------------------------------------------------------------------------
  15  Screening settings (-IFTHRS, JTDIIS, DIFDEN, times)  -14   15    T  3.93D+01  3.95D+01
@ 15    -875.059684178        4.31057D-05   -2.00D-09    8
      Virial theorem: -V/T =      2.002617
@    MULPOP   C_a    -0.65; C_b     0.20; C_c    -0.10; C_d     0.12; C_e    -0.09; C_f    -0.04; C_g    -0.10; C_h    -0.14; C_i    -0.18; C_j    -0.06; 
@             C_k    -0.09; C_l     0.03; C_m    -0.10; C_n     0.08; C_o    -0.00; C_p    -0.40; N_a    -0.57; N_b     0.77; O_a    -0.65; O_b    -0.66; 
@             H_a     0.54; H_b     0.33; H_c     0.08; H_d     0.08; H_e     0.07; H_f     0.08; H_g     0.04; H_h     0.04; H_i     0.02; H_j     0.04; 
@    MULPOP    dipole moment & components:      5.9111;       -1.3458      5.7559      0.0000
 -----------------------------------------------------------------------------
  16  Screening settings (-IFTHRS, JTDIIS, DIFDEN, times)  -14   16    T  3.85D+01  3.88D+01
@ 16    -875.059684178        1.84544D-05   -2.63D-10    8
      Virial theorem: -V/T =      2.002617
@    MULPOP   C_a    -0.65; C_b     0.20; C_c    -0.10; C_d     0.12; C_e    -0.09; C_f    -0.04; C_g    -0.10; C_h    -0.14; C_i    -0.18; C_j    -0.06; 
@             C_k    -0.09; C_l     0.03; C_m    -0.10; C_n     0.08; C_o    -0.00; C_p    -0.40; N_a    -0.57; N_b     0.77; O_a    -0.65; O_b    -0.66; 
@             H_a     0.54; H_b     0.33; H_c     0.08; H_d     0.08; H_e     0.07; H_f     0.08; H_g     0.04; H_h     0.04; H_i     0.02; H_j     0.04; 
@    MULPOP    dipole moment & components:      5.9109;       -1.3458      5.7557      0.0000
 -----------------------------------------------------------------------------
  17  Screening settings (-IFTHRS, JTDIIS, DIFDEN, times)  -14   17    T  3.87D+01  3.89D+01
@ 17    -875.059684178        1.15661D-05   -8.41D-11    8
      Virial theorem: -V/T =      2.002617
@    MULPOP   C_a    -0.65; C_b     0.20; C_c    -0.10; C_d     0.12; C_e    -0.09; C_f    -0.04; C_g    -0.10; C_h    -0.14; C_i    -0.18; C_j    -0.06; 
@             C_k    -0.09; C_l     0.03; C_m    -0.10; C_n     0.08; C_o    -0.00; C_p    -0.40; N_a    -0.57; N_b     0.77; O_a    -0.65; O_b    -0.66; 
@             H_a     0.54; H_b     0.33; H_c     0.08; H_d     0.08; H_e     0.07; H_f     0.08; H_g     0.04; H_h     0.04; H_i     0.02; H_j     0.04; 
@    MULPOP    dipole moment & components:      5.9109;       -1.3458      5.7556      0.0000
 -----------------------------------------------------------------------------
  18  Screening settings (-IFTHRS, JTDIIS, DIFDEN, times)  -14   18    T  3.86D+01  3.89D+01
@ 18    -875.059684179        5.46974D-06   -2.86D-11    8

@ *** DIIS converged in  18 iterations !
@     Converged SCF energy, gradient:   -875.059684178513    5.47D-06
    - total time used in SIRFCK :              0.00 seconds


 *** SCF orbital energy analysis ***

 Only the 20 lowest virtual orbital energies printed in each symmetry.

 Number of electrons :  144
 Orbital occupations :   72

 Sym       Hartree-Fock orbital energies

1 A     -20.58537687   -20.58254821   -15.83578053   -15.59602477   -11.30684836
        -11.28724148   -11.28551721   -11.27629185   -11.26811670   -11.26206828
        -11.25779949   -11.25740352   -11.25634966   -11.25445127   -11.25118484
        -11.24734711   -11.24307627   -11.23822880   -11.23299556   -11.23032280
         -1.57571248    -1.37355889    -1.24102980    -1.14069151    -1.12423829
         -1.11098163    -1.09306472    -1.06923999    -1.04012152    -1.00626856
         -0.96830400    -0.93568233    -0.87907135    -0.83899510    -0.80627258
         -0.78659893    -0.78069880    -0.77185234    -0.76155290    -0.75768768
         -0.73256343    -0.72101799    -0.70934691    -0.69361625    -0.68469853
         -0.66757168    -0.65760521    -0.64156054    -0.62369124    -0.60717535
         -0.59878097    -0.57479296    -0.56900929    -0.55565012    -0.54027922
         -0.53908073    -0.52850581    -0.52827852    -0.51901332    -0.51154624
         -0.50301512    -0.49604909    -0.47892383    -0.47839157    -0.47591952
         -0.45615735    -0.43707823    -0.42497401    -0.38594153    -0.33982118
         -0.28866364    -0.23757334     0.01136595     0.01423645     0.02177515
          0.02700311     0.02804159     0.03136234     0.03675117     0.04140724
          0.04828725     0.05338689     0.05839066     0.06116412     0.06846135
          0.07575739     0.07718609     0.08042501     0.08207246     0.08281602
          0.08690465     0.08762999

    E(LUMO) :     0.01136595 au (symmetry 1)
  - E(HOMO) :    -0.23757334 au (symmetry 1)
  ------------------------------------------
    gap     :     0.24893929 au

 --- Writing SIRIFC interface file

 CPU and wall time for SCF :    1068.283    1074.673


                       .-----------------------------------.
                       | --- Final results from SIRIUS --- |
                       `-----------------------------------'


@    Spin multiplicity:           1
@    Spatial symmetry:            1 ( irrep  A   in C1  )
@    Total charge of molecule:    0

@    Final HF energy:            -875.059684178513                 
@    Nuclear repulsion:          1124.842995138595
@    Electronic energy:         -1999.902679317107

@    Final gradient norm:           0.000005469735

 
     Date and time (Linux)  : Tue Apr 29 19:12:20 2025
     Host name              : xm028                                   

File label for MO orbitals:  29Apr25   FOCKDIIS

 (Only coefficients > 0.0100 are printed.)

 Molecular orbitals for symmetry species 1  (A  )
 ------------------------------------------------

    Orbital        63       64       65       66       67       68       69
   2 C_a :1s     0.0000   0.1025   0.0193  -0.0000  -0.0000   0.0000  -0.0000
   4 C_a :1s    -0.0000   0.0144  -0.0369   0.0000   0.0000   0.0000  -0.0000
   5 C_a :1s    -0.0000  -0.4924  -0.0883   0.0000   0.0000   0.0000  -0.0000
   6 C_a :2px   -0.0000   0.1940   0.1654   0.0000  -0.0000   0.0000  -0.0000
   7 C_a :2py    0.0000  -0.2443  -0.0179  -0.0000  -0.0000   0.0000  -0.0000
   8 C_a :2pz    0.1642  -0.0000  -0.0000   0.2136  -0.0084  -0.2591  -0.2879
   9 C_a :2px   -0.0000  -0.0189   0.0001   0.0000   0.0000   0.0000  -0.0000
  10 C_a :2py   -0.0000   0.0234   0.0088  -0.0000   0.0000  -0.0000   0.0000
  12 C_a :2px   -0.0000   0.0299  -0.1101   0.0000   0.0000  -0.0000  -0.0000
  13 C_a :2py   -0.0000   0.1714  -0.1468   0.0000   0.0000  -0.0000   0.0000
  15 C_a :2px   -0.0000  -0.0643  -0.0431   0.0000  -0.0000   0.0000  -0.0000
  16 C_a :2py   -0.0000  -0.0625   0.1050   0.0000   0.0000   0.0000  -0.0000
  17 C_a :2pz    0.0031   0.0000  -0.0000   0.0053   0.0156  -0.0061  -0.0097
  18 C_a :3d2-   0.0000  -0.0106  -0.0037  -0.0000   0.0000  -0.0000   0.0000
  24 C_a :3d1-   0.0094  -0.0000  -0.0000   0.0116   0.0048  -0.0117  -0.0099
  28 C_a :3d2-   0.0000   0.0858   0.0294  -0.0000  -0.0000   0.0000  -0.0000
  29 C_a :3d1-   0.0069  -0.0000  -0.0000   0.0088   0.0273  -0.0117  -0.0139
  30 C_a :3d0   -0.0000  -0.0003   0.0155   0.0000  -0.0000  -0.0000  -0.0000
  31 C_a :3d1+  -0.0031  -0.0000  -0.0000  -0.0038   0.0165   0.0013  -0.0002
  48 C_b :1s     0.0000  -0.0322   0.0474   0.0000   0.0000  -0.0000   0.0000
  50 C_b :1s     0.0000  -0.1748   0.2319  -0.0000  -0.0000  -0.0000  -0.0000
  51 C_b :1s    -0.0000   0.1804  -0.1228   0.0000  -0.0000  -0.0000   0.0000
  52 C_b :2px   -0.0000  -0.0242   0.0696   0.0000  -0.0000   0.0000   0.0000
  53 C_b :2py   -0.0000   0.1598  -0.0296  -0.0000   0.0000  -0.0000   0.0000
  54 C_b :2pz    0.2101  -0.0000  -0.0000   0.2411   0.0009  -0.2419  -0.2057
  56 C_b :2py    0.0000  -0.0105   0.0036  -0.0000  -0.0000   0.0000   0.0000
  58 C_b :2px    0.0000   0.0606  -0.1337   0.0000   0.0000  -0.0000   0.0000
  59 C_b :2py   -0.0000   0.0345   0.0386   0.0000   0.0000   0.0000  -0.0000
  60 C_b :2pz   -0.0064  -0.0000   0.0000  -0.0070  -0.0295   0.0036   0.0004
  61 C_b :2px   -0.0000   0.0044   0.0689   0.0000  -0.0000   0.0000   0.0000
  62 C_b :2py    0.0000  -0.0834  -0.1374  -0.0000   0.0000  -0.0000   0.0000
  63 C_b :2pz    0.0023  -0.0000   0.0000   0.0030  -0.0226  -0.0060  -0.0071
  69 C_b :3d2-   0.0000  -0.0031   0.0122  -0.0000  -0.0000  -0.0000  -0.0000
  70 C_b :3d1-  -0.0012  -0.0000  -0.0000  -0.0044   0.0005   0.0099   0.0170
  73 C_b :3d2+   0.0000   0.0033   0.0163  -0.0000   0.0000  -0.0000  -0.0000
  74 C_b :3d2-   0.0000   0.0757  -0.0165  -0.0000  -0.0000   0.0000  -0.0000
  75 C_b :3d1-   0.0102   0.0000  -0.0000   0.0088   0.0015  -0.0124  -0.0091
  78 C_b :3d2+  -0.0000  -0.0100   0.0142   0.0000   0.0000  -0.0000  -0.0000
  92 C_b :4f3+   0.0000   0.0036   0.0133  -0.0000  -0.0000   0.0000   0.0000
  94 C_c :1s    -0.0000   0.0357  -0.0049   0.0000   0.0000  -0.0000  -0.0000
  96 C_c :1s     0.0000   0.1510  -0.1203  -0.0000   0.0000  -0.0000   0.0000
  97 C_c :1s     0.0000   0.2308   0.2464  -0.0000  -0.0000   0.0000   0.0000
  98 C_c :2px    0.0000   0.0510  -0.0554  -0.0000   0.0000  -0.0000   0.0000
  99 C_c :2py   -0.0000  -0.1076  -0.0038   0.0000  -0.0000   0.0000   0.0000
 100 C_c :2pz    0.2420  -0.0000   0.0000   0.1968  -0.0104  -0.0766   0.0911
 104 C_c :2px    0.0000   0.0641  -0.0549   0.0000  -0.0000  -0.0000   0.0000
 105 C_c :2py    0.0000   0.0175   0.1717  -0.0000   0.0000  -0.0000  -0.0000
 106 C_c :2pz    0.0031   0.0000  -0.0000   0.0009   0.0134   0.0025   0.0079
 107 C_c :2px    0.0000   0.0866   0.0209  -0.0000   0.0000  -0.0000   0.0000
 108 C_c :2py   -0.0000  -0.0927   0.0653   0.0000   0.0000   0.0000  -0.0000
 116 C_c :3d1-   0.0055  -0.0000  -0.0000   0.0003  -0.0002   0.0082   0.0155
 121 C_c :3d1-   0.0231  -0.0000   0.0000   0.0202  -0.0002  -0.0208  -0.0116
 122 C_c :3d0    0.0000  -0.0074  -0.0151  -0.0000   0.0000  -0.0000   0.0000
 124 C_c :3d2+  -0.0000  -0.0552  -0.0685   0.0000   0.0000  -0.0000  -0.0000
 140 C_d :1s     0.0000  -0.0240  -0.0092  -0.0000  -0.0000   0.0000  -0.0000
 142 C_d :1s    -0.0000  -0.1220  -0.1855   0.0000   0.0000   0.0000   0.0000
 143 C_d :1s    -0.0000  -0.2314  -0.0376   0.0000   0.0000   0.0000  -0.0000
 144 C_d :2px    0.0000  -0.0193   0.0216  -0.0000   0.0000  -0.0000  -0.0000
 145 C_d :2py    0.0000   0.0828   0.0147   0.0000  -0.0000   0.0000   0.0000
 146 C_d :2pz    0.2062  -0.0000  -0.0000   0.0929  -0.0138   0.0766   0.2185
 150 C_d :2px    0.0000  -0.0306   0.0298  -0.0000  -0.0000   0.0000  -0.0000
 151 C_d :2py   -0.0000   0.0940   0.0386  -0.0000   0.0000  -0.0000   0.0000
 153 C_d :2px    0.0000   0.0233   0.0329  -0.0000   0.0000  -0.0000  -0.0000
 154 C_d :2py    0.0000   0.1065   0.0214  -0.0000  -0.0000   0.0000   0.0000
 155 C_d :2pz    0.0031   0.0000  -0.0000   0.0024   0.0123   0.0016   0.0076
 162 C_d :3d1-  -0.0063   0.0000   0.0000  -0.0101   0.0006   0.0100   0.0013
 166 C_d :3d2-  -0.0000  -0.0091  -0.0469   0.0000  -0.0000   0.0000  -0.0000
 167 C_d :3d1-   0.0292   0.0000  -0.0000   0.0207  -0.0015  -0.0192  -0.0087
 169 C_d :3d1+  -0.0102  -0.0000   0.0000  -0.0067   0.0055   0.0047  -0.0042
 170 C_d :3d2+  -0.0000  -0.0505  -0.0306   0.0000   0.0000  -0.0000   0.0000
 186 C_e :1s     0.0000   0.0181  -0.0056  -0.0000   0.0000  -0.0000   0.0000
 188 C_e :1s     0.0000  -0.0825   0.0372   0.0000  -0.0000   0.0000   0.0000
 189 C_e :1s     0.0000   0.0799  -0.0432   0.0000  -0.0000  -0.0000   0.0000
 190 C_e :2px    0.0000   0.0323  -0.0085   0.0000  -0.0000   0.0000   0.0000
 191 C_e :2py    0.0000  -0.0514   0.0068  -0.0000   0.0000  -0.0000  -0.0000
 192 C_e :2pz    0.1100  -0.0000  -0.0000  -0.0999  -0.0144   0.2586   0.2111
 196 C_e :2px    0.0000  -0.0296   0.0183  -0.0000  -0.0000   0.0000  -0.0000
 197 C_e :2py   -0.0000  -0.0588   0.0227   0.0000   0.0000   0.0000   0.0000
 199 C_e :2px    0.0000   0.0350  -0.0020   0.0000  -0.0000   0.0000   0.0000
 200 C_e :2py   -0.0000  -0.1545  -0.0111   0.0000   0.0000  -0.0000  -0.0000
 212 C_e :3d2-   0.0000   0.0516   0.0133  -0.0000   0.0000  -0.0000   0.0000
 213 C_e :3d1-   0.0401   0.0000   0.0000   0.0191  -0.0022  -0.0098   0.0016
 215 C_e :3d1+  -0.0085  -0.0000  -0.0000  -0.0094   0.0023   0.0120   0.0073
 216 C_e :3d2+   0.0000  -0.0059   0.0119  -0.0000   0.0000  -0.0000   0.0000
 234 C_f :1s     0.0000   0.0992   0.0033  -0.0000   0.0000  -0.0000   0.0000
 235 C_f :1s     0.0000   0.0462   0.0302  -0.0000   0.0000  -0.0000   0.0000
 236 C_f :2px   -0.0000  -0.0131  -0.0007   0.0000  -0.0000   0.0000   0.0000
 237 C_f :2py   -0.0000   0.0383  -0.0008   0.0000  -0.0000   0.0000  -0.0000
 238 C_f :2pz    0.0235  -0.0000  -0.0000  -0.1987  -0.0081   0.2495   0.0522
 242 C_f :2px   -0.0000  -0.0350   0.0042   0.0000  -0.0000   0.0000  -0.0000
 243 C_f :2py    0.0000   0.0008   0.0212  -0.0000  -0.0000   0.0000   0.0000
 244 C_f :2pz    0.0009   0.0000   0.0000   0.0016  -0.0024   0.0021   0.0100
 245 C_f :2px   -0.0000  -0.0436  -0.0293   0.0000  -0.0000   0.0000   0.0000
 246 C_f :2py   -0.0000  -0.0275   0.0161   0.0000  -0.0000   0.0000  -0.0000
 254 C_f :3d1-  -0.0044   0.0000   0.0000  -0.0011   0.0012  -0.0104  -0.0177
 258 C_f :3d2-   0.0000   0.0654   0.0263  -0.0000   0.0000  -0.0000  -0.0000
 259 C_f :3d1-   0.0423   0.0000   0.0000   0.0143   0.0004  -0.0057   0.0025
 261 C_f :3d1+  -0.0122  -0.0000  -0.0000   0.0012   0.0006  -0.0066  -0.0058
 262 C_f :3d2+   0.0000   0.0130   0.0589  -0.0000  -0.0000   0.0000  -0.0000
 280 C_g :1s    -0.0000  -0.0055   0.0103   0.0000   0.0000   0.0000  -0.0000
 281 C_g :1s    -0.0000   0.0062  -0.0442  -0.0000   0.0000   0.0000   0.0000
 282 C_g :2px   -0.0000   0.0175   0.0007   0.0000  -0.0000  -0.0000  -0.0000
 283 C_g :2py    0.0000  -0.0268   0.0018   0.0000   0.0000   0.0000   0.0000
 284 C_g :2pz   -0.1070  -0.0000  -0.0000  -0.2709   0.0060   0.0822  -0.2308
 288 C_g :2px   -0.0000  -0.0144   0.0017   0.0000   0.0000  -0.0000  -0.0000
 289 C_g :2py    0.0000   0.0206   0.0015  -0.0000   0.0000  -0.0000  -0.0000
 291 C_g :2px   -0.0000  -0.0322   0.0039   0.0000   0.0000  -0.0000  -0.0000
 292 C_g :2py    0.0000   0.0452  -0.0070  -0.0000   0.0000  -0.0000   0.0000
 300 C_g :3d1-  -0.0045   0.0000   0.0000  -0.0057   0.0009  -0.0090  -0.0140
 302 C_g :3d1+  -0.0030  -0.0000  -0.0000  -0.0101  -0.0002   0.0057  -0.0040
 304 C_g :3d2-   0.0000   0.0214  -0.0142   0.0000   0.0000  -0.0000  -0.0000
 305 C_g :3d1-   0.0422   0.0000   0.0000  -0.0030  -0.0033   0.0044   0.0008
 308 C_g :3d2+   0.0000  -0.0143   0.0341   0.0000  -0.0000   0.0000  -0.0000
 326 C_h :1s    -0.0000  -0.0502  -0.0017   0.0000  -0.0000   0.0000   0.0000
 327 C_h :1s     0.0000  -0.0489   0.0226  -0.0000  -0.0000   0.0000   0.0000
 329 C_h :2py    0.0000   0.0191  -0.0016  -0.0000   0.0000  -0.0000  -0.0000
 330 C_h :2pz   -0.1810  -0.0000  -0.0000  -0.2397   0.0132  -0.0729  -0.2628
 334 C_h :2px    0.0000   0.0113   0.0037  -0.0000   0.0000  -0.0000   0.0000
 335 C_h :2py   -0.0000  -0.0109  -0.0198   0.0000   0.0000  -0.0000  -0.0000
 337 C_h :2px    0.0000   0.0499   0.0009  -0.0000   0.0000  -0.0000   0.0000
 338 C_h :2py   -0.0000  -0.1140   0.0152   0.0000   0.0000  -0.0000  -0.0000
 346 C_h :3d1-   0.0011   0.0000   0.0000   0.0085   0.0001  -0.0105   0.0093
 350 C_h :3d2-  -0.0000   0.0173  -0.0021   0.0000  -0.0000   0.0000  -0.0000
 351 C_h :3d1-   0.0396   0.0000   0.0000  -0.0097  -0.0014   0.0038  -0.0001
 353 C_h :3d1+  -0.0106  -0.0000  -0.0000   0.0083  -0.0015  -0.0008   0.0072
 354 C_h :3d2+  -0.0000  -0.0381  -0.0244   0.0000   0.0000  -0.0000  -0.0000
 372 C_i :1s     0.0000   0.0178  -0.0182  -0.0000  -0.0000   0.0000   0.0000
 373 C_i :1s    -0.0000  -0.0408  -0.0354   0.0000   0.0000  -0.0000  -0.0000
 375 C_i :2py   -0.0000  -0.0139   0.0006  -0.0000  -0.0000   0.0000   0.0000
 376 C_i :2pz   -0.2632   0.0000   0.0000  -0.1146   0.0170  -0.2565  -0.0773
 380 C_i :2px    0.0000   0.0215   0.0146  -0.0000   0.0000   0.0000   0.0000
 381 C_i :2py    0.0000  -0.0115  -0.0140   0.0000  -0.0000   0.0000   0.0000
 383 C_i :2px    0.0000   0.0067  -0.0169  -0.0000   0.0000  -0.0000   0.0000
 392 C_i :3d1-  -0.0053   0.0000   0.0000   0.0037   0.0004  -0.0101   0.0119
 396 C_i :3d2-   0.0000   0.0187  -0.0154   0.0000  -0.0000   0.0000   0.0000
 397 C_i :3d1-   0.0286   0.0000   0.0000  -0.0238   0.0006  -0.0048  -0.0062
 400 C_i :3d2+  -0.0000  -0.0266  -0.0213  -0.0000   0.0000  -0.0000   0.0000
 418 C_j :1s    -0.0000  -0.0074  -0.0198  -0.0000  -0.0000  -0.0000   0.0000
 419 C_j :1s     0.0000   0.1621   0.0159   0.0000  -0.0000  -0.0000   0.0000
 421 C_j :2py    0.0000   0.0102  -0.0005   0.0000   0.0000  -0.0000   0.0000
 422 C_j :2pz   -0.2871   0.0000   0.0000   0.0036   0.0130  -0.2651   0.1034
 427 C_j :2py    0.0000   0.0211  -0.0171  -0.0000  -0.0000   0.0000   0.0000
 429 C_j :2px    0.0000  -0.0122  -0.0042  -0.0000  -0.0000   0.0000   0.0000
 430 C_j :2py    0.0000  -0.0551  -0.0245   0.0000   0.0000  -0.0000   0.0000
 438 C_j :3d1-   0.0055   0.0000   0.0000   0.0073  -0.0007   0.0081   0.0121
 440 C_j :3d1+   0.0103  -0.0000  -0.0000  -0.0018  -0.0003   0.0084  -0.0065
 442 C_j :3d2-  -0.0000   0.0167   0.0019   0.0000  -0.0000  -0.0000   0.0000
 443 C_j :3d1-   0.0245   0.0000   0.0000  -0.0262   0.0001  -0.0100  -0.0052
 464 C_k :1s    -0.0000  -0.0145   0.0077   0.0000  -0.0000  -0.0000   0.0000
 465 C_k :1s     0.0000  -0.0214   0.0835  -0.0000  -0.0000   0.0000  -0.0000
 468 C_k :2pz   -0.2918   0.0000   0.0000   0.1741   0.0014  -0.1298   0.2788
 473 C_k :2py   -0.0000  -0.0228  -0.0250  -0.0000  -0.0000   0.0000   0.0000
 475 C_k :2px    0.0000   0.0009   0.0119   0.0000  -0.0000  -0.0000  -0.0000
 476 C_k :2py   -0.0000   0.0067   0.0378   0.0000   0.0000  -0.0000  -0.0000
 477 C_k :2pz   -0.0031   0.0000   0.0000   0.0028   0.0028  -0.0030   0.0107
 486 C_k :3d1+  -0.0110  -0.0000  -0.0000   0.0051   0.0002  -0.0068   0.0079
 488 C_k :3d2-  -0.0000   0.0061  -0.0104  -0.0000  -0.0000  -0.0000  -0.0000
 489 C_k :3d1-   0.0083   0.0000   0.0000  -0.0241   0.0007  -0.0216   0.0051
 492 C_k :3d2+   0.0000   0.0117   0.0258  -0.0000  -0.0000  -0.0000   0.0000
 510 C_l :1s     0.0000   0.0227   0.0253  -0.0000   0.0000   0.0000   0.0000
 511 C_l :1s    -0.0000  -0.1354  -0.0922  -0.0000   0.0000  -0.0000   0.0000
 514 C_l :2pz   -0.2646   0.0000  -0.0000   0.2488  -0.0073   0.0220   0.2137
 518 C_l :2px   -0.0000  -0.0165  -0.0053  -0.0000  -0.0000   0.0000  -0.0000
 519 C_l :2py   -0.0000  -0.0052  -0.0231   0.0000  -0.0000  -0.0000  -0.0000
 521 C_l :2px   -0.0000   0.0359   0.0174   0.0000   0.0000  -0.0000   0.0000
 522 C_l :2py    0.0000   0.0215   0.0093  -0.0000  -0.0000   0.0000   0.0000
 530 C_l :3d1-   0.0069   0.0000   0.0000  -0.0019  -0.0004   0.0111  -0.0153
 534 C_l :3d2-   0.0000   0.0161   0.0142  -0.0000   0.0000   0.0000  -0.0000
 535 C_l :3d1-   0.0057   0.0000   0.0000  -0.0211   0.0012  -0.0228   0.0070
 538 C_l :3d2+  -0.0000  -0.0135  -0.0052   0.0000  -0.0000   0.0000  -0.0000
 557 C_m :1s     0.0000   0.1147  -0.0240   0.0000   0.0000  -0.0000  -0.0000
 560 C_m :2pz   -0.2062   0.0000  -0.0000   0.2898  -0.0167   0.2315  -0.0590
 567 C_m :2px    0.0000   0.0516  -0.0020  -0.0000  -0.0000   0.0000  -0.0000
 568 C_m :2py   -0.0000  -0.1106  -0.0145   0.0000   0.0000  -0.0000  -0.0000
 576 C_m :3d1-  -0.0008   0.0000   0.0000   0.0034  -0.0004   0.0096  -0.0142
 578 C_m :3d1+  -0.0078   0.0000   0.0000   0.0107  -0.0005   0.0064   0.0018
 580 C_m :3d2-   0.0000   0.0125  -0.0067   0.0000   0.0000   0.0000  -0.0000
 581 C_m :3d1-  -0.0067   0.0000   0.0000  -0.0070   0.0006  -0.0170   0.0119
 584 C_m :3d2+  -0.0000  -0.0167  -0.0058   0.0000   0.0000   0.0000  -0.0000
 602 C_n :1s    -0.0000  -0.0194  -0.0009   0.0000   0.0000   0.0000   0.0000
 603 C_n :1s     0.0000   0.0352   0.0575  -0.0000  -0.0000  -0.0000   0.0000
 606 C_n :2pz   -0.1446   0.0000  -0.0000   0.2453  -0.0170   0.2731  -0.2076
 611 C_n :2py   -0.0000  -0.0068  -0.0107  -0.0000  -0.0000   0.0000  -0.0000
 613 C_n :2px   -0.0000  -0.0284  -0.0106   0.0000  -0.0000   0.0000  -0.0000
 614 C_n :2py    0.0000   0.0770  -0.0073  -0.0000  -0.0000  -0.0000   0.0000
 622 C_n :3d1-   0.0065   0.0000   0.0000  -0.0102   0.0006  -0.0069  -0.0036
 626 C_n :3d2-   0.0000   0.0120  -0.0001   0.0000   0.0000  -0.0000  -0.0000
 627 C_n :3d1-  -0.0070   0.0000   0.0000  -0.0037   0.0002  -0.0142   0.0140
 648 C_o :1s     0.0000   0.0181   0.0046   0.0000   0.0000  -0.0000   0.0000
 649 C_o :1s    -0.0000  -0.0743  -0.0175  -0.0000  -0.0000   0.0000  -0.0000
 652 C_o :2pz   -0.0451   0.0000   0.0000   0.1148  -0.0102   0.1905  -0.2546
 659 C_o :2px    0.0000  -0.0139  -0.0039   0.0000   0.0000  -0.0000  -0.0000
 660 C_o :2py   -0.0000  -0.0672   0.0074   0.0000   0.0000   0.0000  -0.0000
 694 C_p :1s     0.0000  -0.0030   0.0102  -0.0000   0.0000   0.0000  -0.0000
 695 C_p :1s     0.0000   0.0741  -0.0023   0.0000  -0.0000   0.0000   0.0000
 698 C_p :2pz    0.0350   0.0000   0.0000  -0.0189  -0.0005   0.0259  -0.0861
 703 C_p :2py    0.0000   0.0102  -0.0002   0.0000  -0.0000  -0.0000   0.0000
 705 C_p :2px   -0.0000  -0.0184   0.0024   0.0000   0.0000  -0.0000   0.0000
 706 C_p :2py    0.0000   0.0107  -0.0010  -0.0000   0.0000  -0.0000   0.0000
 714 C_p :3d1-   0.0054   0.0000   0.0000  -0.0112   0.0009  -0.0170   0.0219
 741 N_a :1s     0.0000  -0.0136   0.0021  -0.0000   0.0000  -0.0000  -0.0000
 744 N_a :2pz    0.1312   0.0000   0.0000  -0.1909   0.0132  -0.2193   0.2342
 750 N_a :2pz    0.0022  -0.0000  -0.0000  -0.0056   0.0005  -0.0090   0.0119
 753 N_a :2pz    0.0046   0.0000   0.0000  -0.0082   0.0009  -0.0122   0.0174
 784 N_b :1s    -0.0000   0.0260   0.0084  -0.0000   0.0000  -0.0000   0.0000
 786 N_b :1s     0.0000   0.1709   0.0392  -0.0000   0.0000  -0.0000   0.0000
 787 N_b :1s     0.0000   0.3115   0.0911  -0.0000   0.0000  -0.0000   0.0000
 788 N_b :2px    0.0000  -0.2134  -0.0082  -0.0000   0.0000  -0.0000   0.0000
 789 N_b :2py   -0.0000   0.1692   0.1323   0.0000   0.0000   0.0000  -0.0000
 790 N_b :2pz   -0.0273   0.0000  -0.0000  -0.0276  -0.0071   0.0213   0.0099
 794 N_b :2px   -0.0000  -0.0397  -0.0235   0.0000  -0.0000  -0.0000  -0.0000
 795 N_b :2py    0.0000   0.0277   0.0254  -0.0000  -0.0000  -0.0000   0.0000
 797 N_b :2px   -0.0000  -0.0463  -0.0472  -0.0000   0.0000  -0.0000   0.0000
 798 N_b :2py    0.0000   0.0690  -0.0712  -0.0000   0.0000   0.0000  -0.0000
 800 N_b :3d2-   0.0000  -0.0219  -0.0085  -0.0000  -0.0000  -0.0000   0.0000
 801 N_b :3d1-   0.0019  -0.0000   0.0000   0.0026   0.0141  -0.0020  -0.0029
 803 N_b :3d1+  -0.0014  -0.0000   0.0000  -0.0016   0.0145   0.0031   0.0029
 804 N_b :3d2+   0.0000  -0.0054   0.0148  -0.0000  -0.0000   0.0000   0.0000
 805 N_b :3d2-  -0.0000  -0.0598  -0.0235   0.0000   0.0000  -0.0000   0.0000
 806 N_b :3d1-   0.0058   0.0000  -0.0000   0.0083   0.0402  -0.0069  -0.0097
 808 N_b :3d1+  -0.0041   0.0000  -0.0000  -0.0051   0.0413   0.0100   0.0098
 809 N_b :3d2+  -0.0000  -0.0106   0.0316  -0.0000   0.0000   0.0000  -0.0000
 810 N_b :3d2-  -0.0000   0.0131  -0.0060   0.0000   0.0000   0.0000  -0.0000
 811 N_b :3d1-   0.0021   0.0000  -0.0000   0.0030  -0.0133  -0.0047  -0.0044
 814 N_b :3d2+  -0.0000   0.0410  -0.1196   0.0000   0.0000   0.0000   0.0000
 822 N_b :4f3-   0.0000   0.0119   0.0015  -0.0000   0.0000  -0.0000  -0.0000
 832 O_a :1s     0.0000   0.0148  -0.0272  -0.0000  -0.0000  -0.0000   0.0000
 833 O_a :1s     0.0000  -0.0200  -0.0934  -0.0000   0.0000   0.0000  -0.0000
 834 O_a :2px    0.0000   0.6778  -0.4731  -0.0000  -0.0000  -0.0000   0.0000
 835 O_a :2py   -0.0000  -0.3802  -0.0757   0.0000  -0.0000  -0.0000   0.0000
 836 O_a :2pz   -0.0636  -0.0000   0.0000  -0.0896  -0.6402   0.0527   0.0851
 840 O_a :2px   -0.0000   0.0676  -0.0598   0.0000   0.0000   0.0000  -0.0000
 841 O_a :2py    0.0000  -0.0303   0.0186  -0.0000  -0.0000   0.0000  -0.0000
 842 O_a :2pz   -0.0033   0.0000  -0.0000  -0.0054  -0.0617   0.0015   0.0055
 843 O_a :2px    0.0000   0.0479  -0.0451  -0.0000  -0.0000  -0.0000   0.0000
 844 O_a :2py   -0.0000  -0.0271  -0.0078   0.0000  -0.0000  -0.0000   0.0000
 845 O_a :2pz   -0.0021  -0.0000   0.0000  -0.0035  -0.0442   0.0015   0.0052
 851 O_a :3d2-  -0.0000   0.0055  -0.0138   0.0000  -0.0000   0.0000  -0.0000
 852 O_a :3d1-  -0.0019  -0.0000   0.0000  -0.0024  -0.0166   0.0011   0.0015
 855 O_a :3d2+   0.0000   0.0102   0.0022  -0.0000   0.0000  -0.0000   0.0000
 856 O_a :3d2-  -0.0000   0.0180  -0.0200   0.0000   0.0000   0.0000  -0.0000
 857 O_a :3d1-  -0.0014   0.0000  -0.0000  -0.0020  -0.0202   0.0002   0.0010
 860 O_a :3d2+  -0.0000   0.0168  -0.0096   0.0000   0.0000  -0.0000   0.0000
 878 O_b :1s     0.0000  -0.0063   0.0568  -0.0000  -0.0000   0.0000   0.0000
 879 O_b :1s     0.0000  -0.0544   0.0732   0.0000  -0.0000  -0.0000   0.0000
 880 O_b :2px   -0.0000   0.3269   0.1816   0.0000  -0.0000  -0.0000  -0.0000
 881 O_b :2py   -0.0000  -0.2084  -0.8022   0.0000  -0.0000  -0.0000  -0.0000
 882 O_b :2pz   -0.0478   0.0000  -0.0000  -0.0500   0.6438   0.1110   0.0939
 886 O_b :2px   -0.0000   0.0116   0.0234  -0.0000   0.0000  -0.0000  -0.0000
 887 O_b :2py    0.0000  -0.0195  -0.0983  -0.0000   0.0000   0.0000   0.0000
 888 O_b :2pz   -0.0035  -0.0000   0.0000  -0.0036   0.0618   0.0086   0.0067
 889 O_b :2px   -0.0000   0.0251   0.0006   0.0000  -0.0000  -0.0000  -0.0000
 890 O_b :2py   -0.0000  -0.0235  -0.0536   0.0000   0.0000  -0.0000  -0.0000
 891 O_b :2pz   -0.0014   0.0000  -0.0000  -0.0009   0.0465   0.0061   0.0060
 897 O_b :3d2-   0.0000  -0.0038   0.0150   0.0000   0.0000   0.0000   0.0000
 900 O_b :3d1+   0.0014  -0.0000   0.0000   0.0013  -0.0164  -0.0026  -0.0017
 902 O_b :3d2-  -0.0000   0.0032   0.0314   0.0000  -0.0000  -0.0000  -0.0000
 904 O_b :3d0    0.0000   0.0010   0.0101  -0.0000   0.0000  -0.0000  -0.0000
 905 O_b :3d1+   0.0016   0.0000  -0.0000   0.0015  -0.0196  -0.0026  -0.0014
 906 O_b :3d2+   0.0000  -0.0066  -0.0118   0.0000  -0.0000   0.0000   0.0000
 921 H_a :1s     0.0000  -0.0711  -0.1487  -0.0000   0.0000  -0.0000   0.0000
 922 H_a :1s    -0.0000   0.0025   0.0241   0.0000   0.0000  -0.0000  -0.0000
 923 H_a :1s    -0.0000   0.0057  -0.1005   0.0000   0.0000  -0.0000  -0.0000
 924 H_a :1s    -0.0000  -0.0292   0.0059   0.0000  -0.0000   0.0000  -0.0000
 931 H_a :2px   -0.0000  -0.0073  -0.0317   0.0000   0.0000  -0.0000   0.0000
 932 H_a :2py   -0.0000   0.0283  -0.0098   0.0000   0.0000  -0.0000   0.0000
 933 H_a :2pz   -0.0001  -0.0000  -0.0000   0.0002   0.0162  -0.0030  -0.0053
 944 H_b :1s    -0.0000  -0.0214   0.0499   0.0000  -0.0000   0.0000   0.0000
 945 H_b :1s    -0.0000  -0.0021  -0.0446  -0.0000   0.0000   0.0000  -0.0000
 946 H_b :1s    -0.0000  -0.1338   0.0796  -0.0000  -0.0000   0.0000  -0.0000
 947 H_b :1s     0.0000   0.0224   0.0064  -0.0000   0.0000  -0.0000   0.0000
 954 H_b :2px    0.0000   0.0373  -0.0285  -0.0000   0.0000   0.0000   0.0000
 955 H_b :2py    0.0000  -0.0314   0.0157   0.0000   0.0000  -0.0000   0.0000
 967 H_c :1s    -0.0000  -0.0029   0.0613   0.0000  -0.0000   0.0000  -0.0000
 969 H_c :1s     0.0000   0.1082   0.0805  -0.0000  -0.0000  -0.0000   0.0000
 977 H_c :2px    0.0000   0.0134   0.0190  -0.0000  -0.0000   0.0000   0.0000
 978 H_c :2py    0.0000   0.0308   0.0013  -0.0000  -0.0000  -0.0000   0.0000
 990 H_d :1s     0.0000  -0.0152   0.0281  -0.0000   0.0000  -0.0000  -0.0000
 991 H_d :1s    -0.0000   0.0105   0.0099   0.0000   0.0000  -0.0000   0.0000
 992 H_d :1s     0.0000   0.1109   0.0477  -0.0000   0.0000   0.0000   0.0000
 993 H_d :1s    -0.0000  -0.0297  -0.0341   0.0000  -0.0000   0.0000  -0.0000
1000 H_d :2px   -0.0000  -0.0089  -0.0113   0.0000  -0.0000  -0.0000  -0.0000
1001 H_d :2py    0.0000  -0.0258   0.0093  -0.0000   0.0000   0.0000   0.0000
1013 H_e :1s    -0.0000  -0.0110   0.0073  -0.0000   0.0000  -0.0000  -0.0000
1015 H_e :1s    -0.0000  -0.0762  -0.0172   0.0000  -0.0000   0.0000  -0.0000
1016 H_e :1s     0.0000   0.0391   0.0045  -0.0000  -0.0000  -0.0000   0.0000
1023 H_e :2px   -0.0000  -0.0171   0.0014   0.0000  -0.0000   0.0000  -0.0000
1024 H_e :2py    0.0000   0.0207  -0.0084   0.0000  -0.0000  -0.0000  -0.0000
1036 H_f :1s    -0.0000  -0.0123  -0.0002   0.0000  -0.0000   0.0000   0.0000
1038 H_f :1s    -0.0000  -0.0644  -0.1197   0.0000   0.0000  -0.0000  -0.0000
1039 H_f :1s     0.0000   0.0210   0.0346  -0.0000   0.0000  -0.0000   0.0000
1046 H_f :2px    0.0000   0.0179   0.0182  -0.0000  -0.0000   0.0000  -0.0000
1047 H_f :2py    0.0000  -0.0205   0.0058  -0.0000  -0.0000   0.0000   0.0000
1061 H_g :1s    -0.0000  -0.0023  -0.0412   0.0000   0.0000  -0.0000   0.0000
1062 H_g :1s    -0.0000  -0.0386  -0.0088   0.0000   0.0000   0.0000   0.0000
1070 H_g :2py    0.0000   0.0111  -0.0165   0.0000   0.0000  -0.0000   0.0000
1084 H_h :1s     0.0000   0.0438   0.0492   0.0000  -0.0000   0.0000  -0.0000
1085 H_h :1s    -0.0000  -0.0168  -0.0245   0.0000  -0.0000  -0.0000  -0.0000
1093 H_h :2py    0.0000  -0.0149  -0.0081  -0.0000   0.0000  -0.0000   0.0000
1107 H_i :1s     0.0000   0.0515   0.0625  -0.0000  -0.0000   0.0000  -0.0000
1108 H_i :1s     0.0000   0.0287  -0.0013  -0.0000  -0.0000  -0.0000  -0.0000
1115 H_i :2px    0.0000   0.0067   0.0129  -0.0000  -0.0000   0.0000  -0.0000
1116 H_i :2py    0.0000   0.0125  -0.0036   0.0000  -0.0000   0.0000  -0.0000
1130 H_j :1s    -0.0000  -0.0532  -0.0180  -0.0000   0.0000  -0.0000  -0.0000
1131 H_j :1s     0.0000   0.0260   0.0217  -0.0000   0.0000   0.0000   0.0000
1138 H_j :2px    0.0000   0.0100   0.0030   0.0000  -0.0000   0.0000   0.0000
1153 H_k :1s    -0.0000  -0.0351  -0.0508   0.0000  -0.0000   0.0000  -0.0000
1154 H_k :1s    -0.0000  -0.0199   0.0075   0.0000   0.0000   0.0000   0.0000
1162 H_k :2py   -0.0000   0.0001  -0.0109   0.0000  -0.0000   0.0000  -0.0000
1176 H_l :1s     0.0000   0.0335   0.0131   0.0000   0.0000  -0.0000   0.0000
1177 H_l :1s     0.0000  -0.0240  -0.0220   0.0000  -0.0000  -0.0000  -0.0000
1199 H_m :1s     0.0000   0.0043   0.0213  -0.0000  -0.0000   0.0000  -0.0000
1200 H_m :1s     0.0000   0.0199  -0.0034  -0.0000  -0.0000  -0.0000  -0.0000
1222 H_n :1s    -0.0000  -0.0107   0.0004   0.0000  -0.0000   0.0000   0.0000
1223 H_n :1s     0.0000   0.0121   0.0131  -0.0000   0.0000  -0.0000   0.0000
1245 H_o :1s     0.0000   0.0166  -0.0025   0.0000   0.0000  -0.0000   0.0000
1268 H_p :1s    -0.0000  -0.0210  -0.0029  -0.0000   0.0000  -0.0000  -0.0000

    Orbital        70       71       72       73       74       75       76
   4 C_a :1s    -0.0000   0.0000  -0.0000  -0.0000   0.0388   0.1498  -0.2548
   5 C_a :1s     0.0000  -0.0000  -0.0000  -0.0000   3.8164   3.6526  -7.4205
   6 C_a :2px   -0.0000   0.0000   0.0000   0.0000   0.0021   0.0048  -0.0110
   8 C_a :2pz   -0.2883  -0.2401   0.1253  -0.2376  -0.0000  -0.0000  -0.0000
   9 C_a :2px    0.0000   0.0000   0.0000   0.0000  -0.0100  -0.0060   0.0132
  12 C_a :2px    0.0000  -0.0000  -0.0000  -0.0000  -0.3615  -0.2443   0.4324
  13 C_a :2py   -0.0000  -0.0000  -0.0000  -0.0000  -0.3544  -0.2344   0.5205
  14 C_a :2pz   -0.0141  -0.0159   0.0107  -0.0436  -0.0000   0.0000   0.0000
  15 C_a :2px   -0.0000   0.0000  -0.0000  -0.0000   0.5426   0.3446  -0.7102
  16 C_a :2py    0.0000  -0.0000  -0.0000   0.0000   0.5889   0.9323  -1.7205
[...]
1131 H_j :1s    -0.4357  -0.0113   3.3933  -2.8434   1.3792   2.5688
1135 H_j :2px   -0.0132  -0.0088   0.0226  -0.0452   0.0163  -0.0038
1136 H_j :2py   -0.0006   0.0021  -0.0002  -0.0131   0.0052  -0.0045
1138 H_j :2px   -0.1514  -0.1097   0.1645  -0.2928   0.0838  -0.4026
1139 H_j :2py    0.0845   0.0522   0.0045   0.0981   0.1112  -0.0310
1148 H_j :3d0    0.0057  -0.0058  -0.0112  -0.0072   0.0047   0.0114
1150 H_j :3d2+  -0.0126   0.0087   0.0058   0.0129  -0.0108  -0.0167
1151 H_k :1s    -0.0245   0.0191  -0.0025   0.0100  -0.0143  -0.0173
1152 H_k :1s     0.0757   0.0336   0.1394  -0.0231  -0.0761  -0.0131
1153 H_k :1s     1.0073   0.5361   1.9735  -0.1199  -1.3124  -0.0193
1154 H_k :1s     0.6879  -2.0183  -3.3898   1.6504   2.4823  -0.3425
1158 H_k :2px    0.0029   0.0287   0.0322   0.0096  -0.0292  -0.0196
1159 H_k :2py    0.0041   0.0158   0.0041  -0.0039  -0.0023  -0.0046
1161 H_k :2px    0.2025   0.1195   0.2927   0.0430  -0.2057  -0.0577
1162 H_k :2py   -0.0428   0.1157   0.1262  -0.0777  -0.0729   0.1175
1169 H_k :3d2-  -0.0038   0.0137  -0.0047  -0.0019   0.0010  -0.0010
1173 H_k :3d2+  -0.0167   0.0119  -0.0029   0.0064  -0.0064  -0.0083
1174 H_l :1s    -0.0237   0.0259  -0.0015  -0.0036  -0.0145  -0.0142
1175 H_l :1s     0.0801  -0.0159  -0.1027   0.0976   0.1081  -0.0876
1176 H_l :1s     1.0794  -0.3525  -1.3774   1.9340   1.2102  -2.6421
1177 H_l :1s     1.3886  -1.1633   1.2443  -0.4554  -1.4071  -0.3933
1181 H_l :2px   -0.0093  -0.0229   0.0224  -0.0249  -0.0088   0.0296
1182 H_l :2py   -0.0061  -0.0004   0.0068  -0.0180  -0.0018   0.0109
1184 H_l :2px   -0.2569  -0.0215   0.2185  -0.3506  -0.1884   0.4242
1185 H_l :2py    0.0742   0.1071   0.0295  -0.0588   0.0499   0.1630
1194 H_l :3d0    0.0040  -0.0119  -0.0077   0.0027   0.0127  -0.0014
1196 H_l :3d2+  -0.0133   0.0214   0.0055  -0.0093  -0.0114   0.0001
1197 H_m :1s    -0.0187   0.0256  -0.0082  -0.0120  -0.0055  -0.0114
1198 H_m :1s     0.0635   0.0648   0.0573  -0.0117  -0.0651   0.0802
1199 H_m :1s    -0.4764   1.6139   0.0808  -0.4801  -0.1836   0.2552
1200 H_m :1s     0.7140  -1.3808  -0.8095   0.1326   2.7929   0.9500
1204 H_m :2px    0.0024   0.0432   0.0110  -0.0101  -0.0228  -0.0016
1205 H_m :2py    0.0064   0.0165  -0.0027  -0.0057   0.0045   0.0017
1207 H_m :2px   -0.0505   0.3405   0.0067  -0.0830   0.0079   0.0428
1208 H_m :2py    0.0012   0.0414   0.0970   0.0139  -0.1156  -0.0118
1215 H_m :3d2-  -0.0006   0.0108  -0.0034  -0.0039   0.0026  -0.0039
1217 H_m :3d0    0.0024  -0.0079   0.0033  -0.0008  -0.0004   0.0102
1219 H_m :3d2+  -0.0143   0.0155  -0.0027  -0.0033  -0.0032  -0.0189
1220 H_n :1s    -0.0138   0.0245  -0.0097  -0.0186   0.0035  -0.0018
1221 H_n :1s     0.0522   0.0507   0.0093   0.0257   0.0494  -0.0433
1222 H_n :1s    -1.6222   1.4193  -0.2534  -1.1075  -0.1019   0.1195
1223 H_n :1s    -0.1107  -1.1325   2.4392  -1.3459  -1.5478   6.4524
1227 H_n :2px   -0.0156  -0.0390   0.0148   0.0045  -0.0175   0.0125
1228 H_n :2py    0.0046  -0.0100   0.0027  -0.0035  -0.0023   0.0087
1230 H_n :2px    0.2469  -0.3056   0.0842   0.1555  -0.0071   0.0293
1231 H_n :2py    0.0823   0.0633  -0.0617   0.1064   0.1832  -0.1085
1242 H_n :3d2+  -0.0033   0.0172  -0.0111  -0.0066  -0.0000  -0.0084
1243 H_o :1s    -0.0128   0.0173  -0.0066  -0.0216   0.0061   0.0079
1244 H_o :1s     0.1552   0.0298  -0.0829  -0.0179   0.0659   0.1000
1245 H_o :1s     1.6282   0.2738  -1.0334  -0.5760   0.2434   1.3071
1246 H_o :1s    -1.0318  -2.3317   1.4854   3.4787  -0.5125  -5.2928
1250 H_o :2px    0.0455   0.0287  -0.0293  -0.0194   0.0276   0.0346
1251 H_o :2py    0.0106  -0.0110  -0.0051   0.0084  -0.0042  -0.0014
1253 H_o :2px    0.4060   0.0563  -0.2152  -0.0507   0.1181   0.2066
1254 H_o :2py   -0.2090   0.1070  -0.0361  -0.1287  -0.2255   0.0276
1265 H_o :3d2+  -0.0005   0.0127  -0.0007  -0.0117   0.0017   0.0076
1266 H_p :1s    -0.0104   0.0123  -0.0084  -0.0202   0.0088   0.0106
1267 H_p :1s     0.1758  -0.0716   0.0470   0.1331   0.0337  -0.0469
1268 H_p :1s     2.6465  -0.3234   0.5427   1.2578   0.9854  -0.3418
1269 H_p :1s     0.4152  -1.8415  -2.2601   4.0038  -1.7847  -5.4842
1273 H_p :2px   -0.0375   0.0020  -0.0035  -0.0080  -0.0230  -0.0053
1274 H_p :2py   -0.0203  -0.0005  -0.0052  -0.0016  -0.0023  -0.0155
1276 H_p :2px   -0.5246  -0.0553  -0.0581  -0.1304  -0.2841  -0.0424
1277 H_p :2py    0.0470   0.0952  -0.1605  -0.0987   0.1797   0.0517
1284 H_p :3d2-   0.0023   0.0024   0.0067  -0.0049  -0.0025   0.0133
1286 H_p :3d0    0.0036  -0.0103   0.0033   0.0145  -0.0026  -0.0134
1288 H_p :3d2+  -0.0111   0.0123  -0.0105  -0.0228   0.0142   0.0138
1289 H_q :1s    -0.0007   0.0069  -0.0119  -0.0053   0.0174  -0.0044
1290 H_q :1s    -0.0680  -0.0720   0.0398   0.0563  -0.1474  -0.0432
1291 H_q :1s    -0.0242  -0.5539   0.3409   0.4019  -0.8780  -0.1160
1292 H_q :1s    -0.3925   0.6247   1.8396  -1.0639  -2.4022   1.7574
1296 H_q :2px   -0.0140  -0.0254   0.0066   0.0169  -0.0325  -0.0069
1297 H_q :2py   -0.0002   0.0217  -0.0106  -0.0226   0.0182   0.0206
1299 H_q :2px    0.0270  -0.1393   0.0855   0.0837  -0.1613   0.0117
1300 H_q :2py   -0.0700   0.1627  -0.0443  -0.1865   0.0724   0.1472
1307 H_q :3d2-   0.0004   0.0214  -0.0170  -0.0178   0.0270   0.0124
1312 H_r :1s     0.0004  -0.0041   0.0097   0.0031  -0.0127   0.0002
1313 H_r :1s    -0.0628  -0.0110  -0.1282   0.0068   0.1124  -0.0780
1314 H_r :1s    -0.0160  -0.1550  -0.8187   0.2661   0.8355  -0.4711
1315 H_r :1s    -0.3713   1.6843  -1.3836  -1.7559   2.5276   1.1549
1320 H_r :2py    0.0070   0.0068   0.0294  -0.0093  -0.0292   0.0209
1322 H_r :2px    0.0261  -0.0530  -0.0362   0.0727  -0.0057  -0.0682
1323 H_r :2py   -0.0463   0.0618   0.1661  -0.0956  -0.1783   0.0916
1330 H_r :3d2-   0.0007  -0.0024   0.0158   0.0003  -0.0155   0.0047
1334 H_r :3d2+  -0.0048  -0.0021   0.0093  -0.0030  -0.0156   0.0039

  Total CPU  time used in SIRIUS : 19 minutes 59 seconds
  Total wall time used in SIRIUS : 20 minutes  6 seconds

 
     Date and time (Linux)  : Tue Apr 29 19:12:21 2025
     Host name              : xm028                                   

 NOTE:    1 warnings have been issued.
 Check output, result, and error files for "WARNING".


                     .---------------------------------------.
                     | End of Wave Function Section (SIRIUS) |
                     `---------------------------------------'



        *****************************************************************
        ******** Output from **PROPE input processing for ABACUS ********
        *****************************************************************



 The following molecular properties will be calculated in this run:
 ------------------------------------------------------------------

 Default print level:        0

      Electronic excitation energies 
      Direct calculation - no two-electron integrals written or read.
      Two-electron integrals will be calculated in parallel
      Natural orbital connection is used
      for perturbation dependent basis sets.


 Changes of defaults for .EXCITA:
 --------------------------------

 Number of excitation energies:    4
 Print level          :    0
 Integral print level :    0
 Convergence threshold: 1.00E-04
 Maximum iterations   :   60

 Center of mass dipole origin  :    0.084675   -0.271854    0.000000

 Center of mass gauge origin   :    0.084675   -0.271854    0.000000


                 .------------------------------------------------.
                 | Starting in Static Property Section (ABACUS) - |
                 `------------------------------------------------'


 
     Date and time (Linux)  : Tue Apr 29 19:12:21 2025
     Host name              : xm028                                   


                  **********************************************
                  *** ABACUS - Excitation energies (.EXCITA) ***
                  **********************************************

  Time used in EXCITA     is     26 minutes  1 second 


   ***************************************************************************
   ************************ FINAL RESULTS from ABACUS ************************
   ***************************************************************************


 
     Date and time (Linux)  : Tue Apr 29 19:44:52 2025
     Host name              : xm028                                   


                             Molecular geometry (au)
                             -----------------------

 C_a        3.1216820492          -15.2107362863            0.0000000000
 C_b        3.6744949691          -12.7142247669            0.0000000000
 C_c        1.7699250496          -10.7543671274            0.0000000000
 C_d        2.3652265694           -8.2339732580            0.0000000000
 C_e        0.5226982499           -6.2276699285            0.0000000000
 C_f        1.1533300897           -3.7091525491            0.0000000000
 C_g       -0.6579912998           -1.6805391096            0.0000000000
 C_h        0.0000000000            0.8339569298            0.0000000000
 C_i       -1.7869344696            2.8818587993            0.0000000000
 C_j       -1.1031956597            5.3902982587            0.0000000000
 C_k       -2.8646830793            7.4605461482            0.0000000000
 C_l       -2.1491155995            9.9590607676            0.0000000000
 C_m       -3.8751895590           12.0618705270            0.0000000000
 C_n       -3.1075393392           14.5413839464            0.0000000000
 C_o       -4.7680908188           16.6993359159            0.0000000000
 C_p       -3.8709376690           19.1274828053            0.0000000000
 N_a       -5.2991624387           21.2827475748            0.0000000000
 N_b        5.1170495387          -17.1113358958            0.0000000000
 O_a        4.3912132889          -19.3335404353            0.0000000000
 O_b        7.3397548482          -16.4119274660            0.0000000000
 H_a        1.2322185997          -16.0385723861            0.0000000000
 H_b        5.6746888186          -12.1713536970            0.0000000000
 H_c       -0.2265876099          -11.3227343872            0.0000000000
 H_d        4.3717245389           -7.6908999781            0.0000000000
 H_e       -1.4859426796           -6.7584845483            0.0000000000
 H_f        3.1675154692           -3.1931855092            0.0000000000
 H_g       -2.6738112893           -2.1852717295            0.0000000000
 H_h        2.0202117095            1.3267011197            0.0000000000
 H_i       -3.8083915191            2.3993172294            0.0000000000
 H_j        0.9228704298            5.8597666986            0.0000000000
 H_k       -4.8919207888            7.0028601483            0.0000000000
 H_l       -0.1154584900           10.3972636874            0.0000000000
 H_m       -5.9100182985           11.6412080371            0.0000000000
 H_n       -1.0619372697           14.9236301963            0.0000000000
 H_o       -6.8177028883           16.3698905060            0.0000000000
 H_p       -1.8236386196           19.4559833452            0.0000000000
 H_q       -7.2072604782           21.1932860548            0.0000000000
 H_r       -4.4815856589           23.0036682443            0.0000000000





                        Molecular wave function and energy
                        ----------------------------------

     Spatial symmetry   1 ( A   )
     Spin multiplicity  1
     2 * M_S            0
     State number       1
     Total charge       0

     Total energy       -875.0596841785 au (Hartrees)
                        -23811.58527283 eV
                          -2297468.8466 kJ/mol
                           -549108.2329 kcal/mol


                   Scalar Breit-Pauli relativistic corrections
                   -------------------------------------------

     Darwin correction:                          1.6036297238 au
     Mass-velocity correction:                  -1.9983463406 au

     Total relativistic correction:             -0.3947166168 au ( 0.0451%)
     Non-relativistic + relativistic energy:  -875.4544007953 au



      (Note that these corrections are NOT included in the results below.)


                                  Dipole moment
                                  -------------

                 au               Debye          C m (/(10**-30)
              6.116763          15.547259          51.860074


                             Dipole moment components
                             ------------------------

                 au               Debye          C m (/(10**-30)

      x     -1.76482579        -4.48573944       -14.96281619
      y      5.85663522        14.88608095        49.65462125
      z     -0.00000000        -0.00000000        -0.00000000


   Units:   1 a.u. =   2.54175 Debye 
            1 a.u. =   8.47835 (10**-30) C m (SI)




@               Singlet electronic excitation energies
                --------------------------------------

               ========================================
                 Sym.   Mode   Frequency    Frequency
                ex. st.  No.      (au)         (eV)
               ----------------------------------------
                   1      1     0.108964     2.965052
                   1      2     0.160806     4.375760
                   1      3     0.164722     4.482320
                   1      4     0.168821     4.593840
               ========================================

  Max    interatomic separation is   22.8906 Angstrom (   43.2570 Bohr)
  between atoms   38 and   19, "H_r   " and "O_a   ".

  Min HX interatomic separation is    1.0082 Angstrom (    1.9053 Bohr)

  Min YX interatomic separation is    1.2331 Angstrom (    2.3301 Bohr)


  Bond distances (Angstrom):
  --------------------------

                  atom 1     atom 2       distance
                  ------     ------       --------
  bond distance:  C_b        C_a          1.353098
  bond distance:  C_c        C_b          1.446158
  bond distance:  C_d        C_c          1.370433
  bond distance:  C_e        C_d          1.441478
  bond distance:  C_f        C_e          1.373888
  bond distance:  C_g        C_f          1.439144
  bond distance:  C_h        C_g          1.375417
  bond distance:  C_i        C_h          1.438256
  bond distance:  C_j        C_i          1.375837
  bond distance:  C_k        C_j          1.438424
  bond distance:  C_l        C_k          1.375312
  bond distance:  C_m        C_l          1.439629
  bond distance:  C_n        C_m          1.373546
  bond distance:  C_o        C_n          1.440897
  bond distance:  C_p        C_o          1.369821
  bond distance:  N_a        C_p          1.368206
  bond distance:  N_b        C_a          1.458243
  bond distance:  O_a        N_b          1.237079
  bond distance:  O_b        N_b          1.233061
  bond distance:  H_a        C_a          1.091618
  bond distance:  H_b        C_b          1.096749
  bond distance:  H_c        C_c          1.098486
  bond distance:  H_d        C_d          1.099997
  bond distance:  H_e        C_e          1.099416
  bond distance:  H_f        C_f          1.100277
  bond distance:  H_g        C_g          1.099656
  bond distance:  H_h        C_h          1.100390
  bond distance:  H_i        C_i          1.099764
  bond distance:  H_j        C_j          1.100554
  bond distance:  H_k        C_k          1.099768
  bond distance:  H_l        C_l          1.100865
  bond distance:  H_m        C_m          1.099554
  bond distance:  H_n        C_n          1.101223
  bond distance:  H_o        C_o          1.098530
  bond distance:  H_p        C_p          1.097242
  bond distance:  H_q        N_a          1.010831
  bond distance:  H_r        N_a          1.008218


  Bond angles (degrees):
  ----------------------

                  atom 1     atom 2     atom 3         angle
                  ------     ------     ------         -----
  bond angle:     C_b        C_a        N_b          121.121
  bond angle:     C_b        C_a        H_a          126.146
  bond angle:     N_b        C_a        H_a          112.734
  bond angle:     C_a        C_b        C_c          123.334
  bond angle:     C_a        C_b        H_b          117.671
  bond angle:     C_c        C_b        H_b          118.996
  bond angle:     C_b        C_c        C_d          122.530
  bond angle:     C_b        C_c        H_c          118.290
  bond angle:     C_d        C_c        H_c          119.180
  bond angle:     C_c        C_d        C_e          124.147
  bond angle:     C_c        C_d        H_d          118.434
  bond angle:     C_e        C_d        H_d          117.419
  bond angle:     C_d        C_e        C_f          123.379
  bond angle:     C_d        C_e        H_e          117.761
  bond angle:     C_f        C_e        H_e          118.861
  bond angle:     C_e        C_f        C_g          124.181
  bond angle:     C_e        C_f        H_f          118.426
  bond angle:     C_g        C_f        H_f          117.393
  bond angle:     C_f        C_g        C_h          123.574
  bond angle:     C_f        C_g        H_g          117.704
  bond angle:     C_h        C_g        H_g          118.721
  bond angle:     C_g        C_h        C_i          124.229
  bond angle:     C_g        C_h        H_h          118.372
  bond angle:     C_i        C_h        H_h          117.400
  bond angle:     C_h        C_i        C_j          123.646
  bond angle:     C_h        C_i        H_i          117.681
  bond angle:     C_j        C_i        H_i          118.673
  bond angle:     C_i        C_j        C_k          124.360
  bond angle:     C_i        C_j        H_j          118.293
  bond angle:     C_k        C_j        H_j          117.347
  bond angle:     C_j        C_k        C_l          123.625
  bond angle:     C_j        C_k        H_k          117.671
  bond angle:     C_l        C_k        H_k          118.704
  bond angle:     C_k        C_l        C_m          124.638
  bond angle:     C_k        C_l        H_l          118.141
  bond angle:     C_m        C_l        H_l          117.221
  bond angle:     C_l        C_m        C_n          123.417
  bond angle:     C_l        C_m        H_m          117.700
  bond angle:     C_n        C_m        H_m          118.883
  bond angle:     C_m        C_n        C_o          125.219
  bond angle:     C_m        C_n        H_n          117.787
  bond angle:     C_o        C_n        H_n          116.994
  bond angle:     C_n        C_o        C_p          122.143
  bond angle:     C_n        C_o        H_o          118.447
  bond angle:     C_p        C_o        H_o          119.410
  bond angle:     C_o        C_p        N_a          126.191
  bond angle:     C_o        C_p        H_p          119.394
  bond angle:     N_a        C_p        H_p          114.415
  bond angle:     C_p        N_a        H_q          120.847
  bond angle:     C_p        N_a        H_r          121.057
  bond angle:     H_q        N_a        H_r          118.096
  bond angle:     C_a        N_b        O_a          115.518
  bond angle:     C_a        N_b        O_b          118.926
  bond angle:     O_a        N_b        O_b          125.556




 CPU time statistics for ABACUS
 ------------------------------

 MAGINT     00:06:19      20 %
 EXCITA     00:26:01      80 %

 TOTAL      00:32:20     100 %


  Total CPU  time used in ABACUS: 32 minutes 20 seconds
  Total wall time used in ABACUS: 32 minutes 31 seconds


                   .-------------------------------------------.
                   | End of Static Property Section (ABACUS) - |
                   `-------------------------------------------'

  Total CPU  time used in DALTON: 52 minutes 31 seconds
  Total wall time used in DALTON: 52 minutes 49 seconds

 
     Date and time (Linux)  : Tue Apr 29 19:44:52 2025
     Host name              : xm028                                   
