

     ************************************************************************
     *************** Dalton - An Electronic Structure Program ***************
     ************************************************************************

    This is output from DALTON release Dalton2020.0 (2020)
         ( Web site: http://daltonprogram.org )

   ----------------------------------------------------------------------------

    NOTE:
     
    Dalton is an experimental code for the evaluation of molecular
    properties using (MC)SCF, DFT, CI, and CC wave functions.
    The authors accept no responsibility for the performance of
    the code or for the correctness of the results.
     
    The code (in whole or part) is provided under a licence and
    is not to be reproduced for further distribution without
    the written permission of the authors or their representatives.
     
    See the home page "http://daltonprogram.org" for further information.
     
    If results obtained with this code are published,
    the appropriate citations would be both of:
     
       K. Aidas, C. Angeli, K. L. Bak, V. Bakken, R. Bast,
       L. Boman, O. Christiansen, R. Cimiraglia, S. Coriani,
       P. Dahle, E. K. Dalskov, U. Ekstroem,
       T. Enevoldsen, J. J. Eriksen, P. Ettenhuber, B. Fernandez,
       L. Ferrighi, H. Fliegl, L. Frediani, K. Hald, A. Halkier,
       C. Haettig, H. Heiberg, T. Helgaker, A. C. Hennum,
       H. Hettema, E. Hjertenaes, S. Hoest, I.-M. Hoeyvik,
       M. F. Iozzi, B. Jansik, H. J. Aa. Jensen, D. Jonsson,
       P. Joergensen, J. Kauczor, S. Kirpekar,
       T. Kjaergaard, W. Klopper, S. Knecht, R. Kobayashi, H. Koch,
       J. Kongsted, A. Krapp, K. Kristensen, A. Ligabue,
       O. B. Lutnaes, J. I. Melo, K. V. Mikkelsen, R. H. Myhre,
       C. Neiss, C. B. Nielsen, P. Norman, J. Olsen,
       J. M. H. Olsen, A. Osted, M. J. Packer, F. Pawlowski,
       T. B. Pedersen, P. F. Provasi, S. Reine, Z. Rinkevicius,
       T. A. Ruden, K. Ruud, V. Rybkin, P. Salek, C. C. M. Samson,
       A. Sanchez de Meras, T. Saue, S. P. A. Sauer,
       B. Schimmelpfennig, K. Sneskov, A. H. Steindal,
       K. O. Sylvester-Hvid, P. R. Taylor, A. M. Teale,
       E. I. Tellgren, D. P. Tew, A. J. Thorvaldsen, L. Thoegersen,
       O. Vahtras, M. A. Watson, D. J. D. Wilson, M. Ziolkowski
       and H. Agren,
       "The Dalton quantum chemistry program system",
       WIREs Comput. Mol. Sci. 2014, 4:269–284 (doi: 10.1002/wcms.1172)
     
    and
     
       Dalton, a molecular electronic structure program,
       Release Dalton2020.0 (2020), see http://daltonprogram.org
   ----------------------------------------------------------------------------

    Authors in alphabetical order (Major contribution(s) in parenthesis):

  Kestutis Aidas,           Vilnius University,           Lithuania   (QM/MM)
  Celestino Angeli,         University of Ferrara,        Italy       (NEVPT2)
  Keld L. Bak,              UNI-C,                        Denmark     (AOSOPPA, non-adiabatic coupling, magnetic properties)
  Vebjoern Bakken,          University of Oslo,           Norway      (DALTON; geometry optimizer, symmetry detection)
  Radovan Bast,             UiT The Arctic U. of Norway,  Norway      (DALTON installation and execution frameworks)
  Pablo Baudin,             University of Valencia,       Spain       (Cholesky excitation energies)
  Linus Boman,              NTNU,                         Norway      (Cholesky decomposition and subsystems)
  Bruno N. Cabral Tenorio,  Technical Univ. of Denmark,   Denmark     (Lanczos-based CC methods)
  Ove Christiansen,         Aarhus University,            Denmark     (CC module)
  Renzo Cimiraglia,         University of Ferrara,        Italy       (NEVPT2)
  Sonia Coriani,            Technical Univ. of Denmark,   Denmark     (CC and RESPONS modules)
  Janusz Cukras,            University of Warsaw,         Poland      (MChD in RESPONS)
  Paal Dahle,               University of Oslo,           Norway      (Parallelization)
  Erik K. Dalskov,          UNI-C,                        Denmark     (SOPPA)
  Thomas Enevoldsen,        Univ. of Southern Denmark,    Denmark     (SOPPA)
  Janus J. Eriksen,         Aarhus University,            Denmark     (Polarizable embedding, TDA)
  Rasmus Faber,             Technical Univ. of Denmark,   Denmark     (Vib.avg. NMR w. SOPPA, parallel AO-SOPPA, CVS-CC and EOMCC)
  Tobias Fahleson,          KTH Stockholm,                Sweden      (Damped cubic response)
  Berta Fernandez,          U. of Santiago de Compostela, Spain       (Doublet spin, ESR in RESPONS)
  Lara Ferrighi,            Aarhus University,            Denmark     (PCM Cubic response)
  Heike Fliegl,             University of Oslo,           Norway      (CCSD(R12))
  Luca Frediani,            UiT The Arctic U. of Norway,  Norway      (PCM)
  Emmanuel Fromager,        Univ. Strasbourg,             France      (MC-srDFT)
  Bin Gao,                  UiT The Arctic U. of Norway,  Norway      (Gen1Int library)
  Andre S. P. Gomes,        CNRS/Universite de Lille,     France      (Frozen density embedding)
  Christof Haettig,         Ruhr-University Bochum,       Germany     (CC module)
  Kasper Hald,              Aarhus University,            Denmark     (CC module)
  Asger Halkier,            Aarhus University,            Denmark     (CC module)
  Frederik Beyer Hansen,    University of Copenhagen,     Denmark     (Parallel AO-SOPPA)
  Erik D. Hedegaard,        Univ. of Southern Denmark,    Denmark     (Polarizable embedding, QM/MM, and MC-srDFT)
  Hanne Heiberg,            University of Oslo,           Norway      (Geometry analysis, selected one-electron integrals)
  Trygve Helgaker,          University of Oslo,           Norway      (DALTON; ABACUS, ERI, DFT modules, London, and much more)
  Alf Christian Hennum,     University of Oslo,           Norway      (Parity violation)
  Hinne Hettema,            University of Auckland,       New Zealand (Quadratic response in RESPONS; SIRIUS supersymmetry)
  Eirik Hjertenaes,         NTNU,                         Norway      (Cholesky decomposition)
  Pi A. B. Haase,           University of Copenhagen,     Denmark     (Triplet AO-SOPPA)
  Maria Francesca Iozzi,    University of Oslo,           Norway      (RPA)
  Christoph Jacob           TU Braunschweig               Germany     (Frozen density embedding)
  Brano Jansik              Technical Univ. of Ostrava    Czech Rep.  (DFT cubic response)
  Hans Joergen Aa. Jensen,  Univ. of Southern Denmark,    Denmark     (DALTON; SIRIUS, RESPONS, ABACUS, MC-srDFT, and much more)
  Dan Jonsson,              UiT The Arctic U. of Norway,  Norway      (Cubic response in RESPONS module)
  Poul Joergensen,          Aarhus University,            Denmark     (RESPONS, ABACUS, and CC modules)
  Maciej Kaminski,          University of Warsaw,         Poland      (CPPh in RESPONS)
  Joanna Kauczor,           Linkoeping University,        Sweden      (Complex polarization propagator (CPP) module)
  Sheela Kirpekar,          Univ. of Southern Denmark,    Denmark     (Mass-velocity & Darwin integrals)
  Erik Kjellgren,           Univ. of Southern Denmark,    Denmark     (MC-srDFT)
  Wim Klopper,              KIT Karlsruhe,                Germany     (R12 code in CC, SIRIUS, and ABACUS modules)
  Stefan Knecht,            ETH Zurich,                   Switzerland (Parallel CI and MCSCF, MC-srDFT)
  Rika Kobayashi,           Australian National Univ.,    Australia   (DIIS in CC, London in MCSCF)
  Henrik Koch,              NTNU,                         Norway      (CC module, Cholesky decomposition)
  Jacob Kongsted,           Univ. of Southern Denmark,    Denmark     (Polarizable embedding, polarizable density embedding, QM/MM)
  Andrea Ligabue,           University of Modena,         Italy       (CTOCD, AOSOPPA)
  Nanna H. List             Univ. of Southern Denmark,    Denmark     (Polarizable embedding)
  Ola B. Lutnaes,           University of Oslo,           Norway      (DFT Hessian)
  Juan I. Melo,             University of Buenos Aires,   Argentina   (LRESC, Relativistic Effects on NMR Shieldings)
  Kurt V. Mikkelsen,        University of Copenhagen,     Denmark     (MC-SCRF and QM/MM)
  Rolf H. Myhre,            NTNU,                         Norway      (Subsystems and CC3)
  Christian Neiss,          Univ. Erlangen-Nuernberg,     Germany     (CCSD(R12))
  Christian B. Nielsen,     University of Copenhagen,     Denmark     (QM/MM)
  Patrick Norman,           KTH Stockholm,                Sweden      (Cubic response and complex frequency response in RESPONS)
  Jeppe Olsen,              Aarhus University,            Denmark     (SIRIUS CI/density modules)
  Jogvan Magnus H. Olsen,   Aarhus University,            Denmark     (Polarizable embedding and polarizable density embedding)
  Anders Osted,             Copenhagen University,        Denmark     (QM/MM)
  Martin J. Packer,         University of Sheffield,      UK          (SOPPA)
  Filip Pawlowski,          Kazimierz Wielki University,  Poland      (CC3)
  Morten N. Pedersen,       Univ. of Southern Denmark,    Denmark     (Polarizable embedding)
  Thomas B. Pedersen,       University of Oslo,           Norway      (Cholesky decomposition)
  Patricio F. Provasi,      University of Northeastern,   Argentina   (Analysis of coupling constants in localized orbitals)
  Peter Reinholdt,          Univ. of Southern Denmark,    Denmark     (Polarizable embedding and polarizable density embedding)
  Zilvinas Rinkevicius,     KTH Stockholm,                Sweden      (open-shell DFT, ESR)
  Elias Rudberg,            KTH Stockholm,                Sweden      (DFT grid and basis info)
  Torgeir A. Ruden,         University of Oslo,           Norway      (Numerical derivatives in ABACUS)
  Kenneth Ruud,             UiT The Arctic U. of Norway,  Norway      (DALTON; ABACUS magnetic properties and much more)
  Pawel Salek,              KTH Stockholm,                Sweden      (DALTON; DFT code)
  Claire C. M. Samson       University of Karlsruhe       Germany     (Boys localization, r12 integrals in ERI)
  Alfredo Sanchez de Meras, University of Valencia,       Spain       (CC module, Cholesky decomposition)
  Trond Saue,               Paul Sabatier University,     France      (direct Fock matrix construction)
  Stephan P. A. Sauer,      University of Copenhagen,     Denmark     (SOPPA(CCSD), SOPPA prop., AOSOPPA, vibrational g-factors)
  Bernd Schimmelpfennig,    Forschungszentrum Karlsruhe,  Germany     (AMFI module)
  Anna K. Schnack-Petersen, University of Copenhagen,     Denmark     (RPA(D) and HRPA(D) properties in AOSOPPA)
  Kristian Sneskov,         Aarhus University,            Denmark     (Polarizable embedding, QM/MM)
  Arnfinn H. Steindal,      UiT The Arctic U. of Norway,  Norway      (parallel QM/MM, polarizable embedding)
  Casper Steinmann,         Aalborg University,           Denmark     (QFIT, polarizable embedding)
  K. O. Sylvester-Hvid,     University of Copenhagen,     Denmark     (MC-SCRF)
  Peter R. Taylor,          VLSCI/Univ. of Melbourne,     Australia   (Symmetry handling ABACUS, integral transformation)
  Andrew M. Teale,          University of Nottingham,     England     (DFT-AC, DFT-D)
  David P. Tew,             University of Bristol,        England     (CCSD(R12))
  Julien Toulouse,          Sorbonne Univ.,               France      (MC-srDFT)
  Olav Vahtras,             KTH Stockholm,                Sweden      (Triplet response, spin-orbit, ESR, TDDFT, open-shell DFT)
  Lucas Visscher,           Vrije Universiteit Amsterdam, Netherlands (Frozen density embedding)
  David J. Wilson,          La Trobe University,          Australia   (DFT Hessian and DFT magnetizabilities)
  Hans Agren,               KTH Stockholm,                Sweden      (SIRIUS module, RESPONS, MC-SCRF solvation)
 --------------------------------------------------------------------------------

     Date and time (Linux)  : Tue May  6 05:39:17 2025
     Host name              : xm048                                   

 * Work memory size             :  1310720000 =  9.766 gigabytes.

 * Directories for basis set searches:
   1) /gpfs/projects/rjh/adrian/summer2025/beta_projects/raw_data/NLO/dalton/hf/n3/dipole
   2) /gpfs/projects/rjh/adrian/dalton/build/basis


Compilation information
-----------------------

 Who compiled             | ahurtado
 Host                     | milan2
 System                   | Linux-5.14.0-427.42.1.el9_4.x86_64
 CMake generator          | Unix Makefiles
 Processor                | x86_64
 64-bit integers          | OFF
 MPI                      | ON
 Fortran compiler         | /gpfs/software/openmpi/milan/gcc13.2/4.1.6/bin/mpi
                          | f90
 Fortran compiler version | GNU Fortran (GCC) 13.2.0
 C compiler               | /gpfs/software/openmpi/milan/gcc13.2/4.1.6/bin/mpi
                          | cc
 C compiler version       | gcc (GCC) 13.2.0
 C++ compiler             | /gpfs/software/openmpi/milan/gcc13.2/4.1.6/bin/mpi
                          | cxx
 C++ compiler version     | unknown
 BLAS                     | /gpfs/software/intel/oneAPI/2024_2/mkl/2024.2/lib/
                          | intel64/libmkl_gf_lp64.so;/gpfs/software/intel/one
                          | API/2024_2/mkl/2024.2/lib/intel64/libmkl_sequentia
                          | l.so;/gpfs/software/intel/oneAPI/2024_2/mkl/2024.2
                          | /lib/intel64/libmkl_core.so;/usr/lib64/libpthread.
                          | a;/usr/lib64/libm.so
 LAPACK                   | /gpfs/software/intel/oneAPI/2024_2/mkl/2024.2/lib/
                          | intel64/libmkl_lapack95_lp64.a;/gpfs/software/inte
                          | l/oneAPI/2024_2/mkl/2024.2/lib/intel64/libmkl_gf_l
                          | p64.so
 Static linking           | OFF
 Last Git revision        | 66052b3af5ea7225e31178bf9a8b031913c72190
 Git branch               | (HEAD detached at Dalton2020.0)
 Configuration time       | 2025-04-10 16:02:31.569498

 * MPI parallel run using 96 processes.


   Content of the .dal input file
 ----------------------------------

**DALTON INPUT
.RUN RESPONSE
.DIRECT
**WAVE FUNCTIONS
.HF
**PROPERTIES
**RESPONSE
*QUADRA
.DIPLEN
.FREQUENCIES
3
0.0 0.019337625 0.03867525
**END OF DALTON INPUT


   Content of the .mol file
 ----------------------------

BASIS
aug-cc-pVQZ
blah
blah
Atomtype=4 Angstrom Charge=0 Nosymmetry
Charge=6 Atoms=6
C_a 3.5837590001880586 1.689807997561741 0.0
C_b 2.218342998768872 1.7965149998534866 0.0
C_c 1.3696039998245548 0.6327549976112581 0.0
C_d 0.0 0.6496800004299873 0.0
C_e -0.7822710021759658 -0.5644059981134033 0.0
C_f -2.135866999786617 -0.5945379993769223 0.0
Charge=7 Atoms=2
N_a 4.474126999726809 2.724384999838376 0.0
N_b -2.8592999997239983 -1.8575000010382903 0.0
Charge=8 Atoms=2
O_a -2.221885998947471 -2.9141560016617842 0.0
O_b -4.093871998581652 -1.7679050022079805 0.0
Charge=1 Atoms=8
H_a 4.045026999956447 0.6942230000033286 0.0
H_b 1.7506710022323968 2.7899280001342484 0.0
H_c 4.154989997874813 3.6838820007917366 0.0
H_d 5.468287002433469 2.5547250021906613 0.0
H_e 1.868681002197853 -0.3486340010462551 0.0
H_f -0.5281119981120097 1.6124769980950349 0.0
H_g -0.2588490011384542 -1.528719998671823 0.0
H_h -2.799823000128213 0.27152800243775366 0.0


       *******************************************************************
       *********** Output from DALTON general input processing ***********
       *******************************************************************

 --------------------------------------------------------------------------------
   Overall default print level:    0
   Print level for DALTON.STAT:    1

    Parallel calculation using MPI
    AO-direct calculation (in sections where implemented)
    HERMIT 1- and 2-electron integral sections will be executed
    "Old" integral transformation used (limited to max 255 basis functions)
    Wave function sections will be executed (SIRIUS module)
    Dynamic molecular response properties section will be executed (RESPONSE module)
 --------------------------------------------------------------------------------


   ****************************************************************************
   *************** Output of molecule and basis set information ***************
   ****************************************************************************


    The two title cards from your ".mol" input:
    ------------------------------------------------------------------------
 1: blah                                                                    
 2: blah                                                                    
    ------------------------------------------------------------------------

  Coordinates are entered in Angstrom and converted to atomic units.
          - Conversion factor : 1 bohr = 0.52917721 A

  Atomic type no.    1
  --------------------
  Nuclear charge:   6.00000
  Number of symmetry independent centers:    6
  Number of basis sets to read;    2
  Basis set file used for this atomic type with Z =   6 :
     "/gpfs/projects/rjh/adrian/dalton/build/basis/aug-cc-pVQZ"

  Atomic type no.    2
  --------------------
  Nuclear charge:   7.00000
  Number of symmetry independent centers:    2
  Number of basis sets to read;    2
  Basis set file used for this atomic type with Z =   7 :
     "/gpfs/projects/rjh/adrian/dalton/build/basis/aug-cc-pVQZ"

  Atomic type no.    3
  --------------------
  Nuclear charge:   8.00000
  Number of symmetry independent centers:    2
  Number of basis sets to read;    2
  Basis set file used for this atomic type with Z =   8 :
     "/gpfs/projects/rjh/adrian/dalton/build/basis/aug-cc-pVQZ"

  Atomic type no.    4
  --------------------
  Nuclear charge:   1.00000
  Number of symmetry independent centers:    8
  Number of basis sets to read;    2
  Basis set file used for this atomic type with Z =   1 :
     "/gpfs/projects/rjh/adrian/dalton/build/basis/aug-cc-pVQZ"


                         SYMGRP: Point group information
                         -------------------------------

@    Point group: C1 


                                 Isotopic Masses
                                 ---------------

                           C_a        12.000000
                           C_b        12.000000
                           C_c        12.000000
                           C_d        12.000000
                           C_e        12.000000
                           C_f        12.000000
                           N_a        14.003074
                           N_b        14.003074
                           O_a        15.994915
                           O_b        15.994915
                           H_a         1.007825
                           H_b         1.007825
                           H_c         1.007825
                           H_d         1.007825
                           H_e         1.007825
                           H_f         1.007825
                           H_g         1.007825
                           H_h         1.007825

                       Total mass:   140.058578 amu
                       Natural abundance:  92.331 %

 Center-of-mass coordinates (a.u.):   -0.182911   -0.129889    0.000000
 Center-of-mass coordinates (Angs):   -0.096792   -0.068734    0.000000


  Atoms and basis sets
  --------------------

  Number of atom types :    4
  Total number of atoms:   18

  Basis set used is "aug-cc-pVQZ" from the basis set library.

  label    atoms   charge   prim   cont     basis
  ----------------------------------------------------------------------
  C_          6    6.0000    93    80      [13s7p4d3f2g|6s5p4d3f2g]                           
  N_          2    7.0000    93    80      [13s7p4d3f2g|6s5p4d3f2g]                           
  O_          2    8.0000    93    80      [13s7p4d3f2g|6s5p4d3f2g]                           
  H_          8    1.0000    48    46      [7s4p3d2f|5s4p3d2f]                                
  ----------------------------------------------------------------------
  total:     18   74.0000  1314  1168
  ----------------------------------------------------------------------
  Spherical harmonic basis used.

  Threshold for neglecting AO integrals:  1.00D-12

  Max    interatomic separation is   10.4938 Angstrom (   19.8304 Bohr)
  between atoms   14 and   10, "H_d   " and "O_b   ".

  Min HX interatomic separation is    1.0085 Angstrom (    1.9059 Bohr)

  Min YX interatomic separation is    1.2340 Angstrom (    2.3320 Bohr)


  Bond distances (Angstrom):
  --------------------------

                  atom 1     atom 2       distance
                  ------     ------       --------
  bond distance:  C_b        C_a          1.369579
  bond distance:  C_c        C_b          1.440380
  bond distance:  C_d        C_c          1.369709
  bond distance:  C_e        C_d          1.444283
  bond distance:  C_f        C_e          1.353931
  bond distance:  N_a        C_a          1.364956
  bond distance:  N_b        C_f          1.455482
  bond distance:  O_a        N_b          1.234025
  bond distance:  O_b        N_b          1.237819
  bond distance:  H_a        C_a          1.097250
  bond distance:  H_b        C_b          1.097992
  bond distance:  H_c        N_a          1.011179
  bond distance:  H_d        N_a          1.008533
  bond distance:  H_e        C_c          1.101001
  bond distance:  H_f        C_d          1.098126
  bond distance:  H_g        C_e          1.097211
  bond distance:  H_h        C_f          1.091287


  Bond angles (degrees):
  ----------------------

                  atom 1     atom 2     atom 3         angle
                  ------     ------     ------         -----
  bond angle:     C_b        C_a        N_a          126.247
  bond angle:     C_b        C_a        H_a          119.327
  bond angle:     N_a        C_a        H_a          114.425
  bond angle:     C_a        C_b        C_c          121.635
  bond angle:     C_a        C_b        H_b          119.678
  bond angle:     C_c        C_b        H_b          118.687
  bond angle:     C_b        C_c        C_d          125.396
  bond angle:     C_b        C_c        H_e          116.941
  bond angle:     C_d        C_c        H_e          117.663
  bond angle:     C_c        C_d        C_e          122.087
  bond angle:     C_c        C_d        H_f          119.454
  bond angle:     C_e        C_d        H_f          118.460
  bond angle:     C_d        C_e        C_f          124.070
  bond angle:     C_d        C_e        H_g          118.712
  bond angle:     C_f        C_e        H_g          117.218
  bond angle:     C_e        C_f        N_b          121.080
  bond angle:     C_e        C_f        H_h          126.200
  bond angle:     N_b        C_f        H_h          112.721
  bond angle:     C_a        N_a        H_c          120.887
  bond angle:     C_a        N_a        H_d          121.031
  bond angle:     H_c        N_a        H_d          118.082
  bond angle:     C_f        N_b        O_a          119.096
  bond angle:     C_f        N_b        O_b          115.654
  bond angle:     O_a        N_b        O_b          125.251




 Principal moments of inertia (u*A**2) and principal axes
 --------------------------------------------------------

   IA      61.539950          0.851426    0.524475    0.000000
   IB    1517.728391         -0.524475    0.851426    0.000000
   IC    1579.268341          0.000000    0.000000    1.000000


 Rotational constants
 --------------------

@    The molecule is planar.

               A                   B                   C

           8212.2102            332.9838            320.0083 MHz
            0.273930            0.011107            0.010674 cm-1


@  Nuclear repulsion energy :  451.042870482930 Hartree


                     .---------------------------------------.
                     | Starting in Integral Section (HERMIT) |
                     `---------------------------------------'



 ***************************************************************************************
 ****************** Output from **INTEGRALS input processing (HERMIT) ******************
 ***************************************************************************************


 - Using defaults, no **INTEGRALS input found

 Default print level:        1

 Calculation of one-electron Hamiltonian integrals.

 Center of mass  (bohr):     -0.182910683850     -0.129888666044      0.000000000000
 Operator center (bohr):      0.000000000000      0.000000000000      0.000000000000
 Gauge origin    (bohr):      0.000000000000      0.000000000000      0.000000000000
 Dipole origin   (bohr):      0.000000000000      0.000000000000      0.000000000000


     ************************************************************************
     ************************** Output from HERINT **************************
     ************************************************************************



                      Nuclear contribution to dipole moments
                      --------------------------------------

                 au               Debye          C m (/(10**-30)

      x      0.00000946         0.00002404         0.00008021
      y     -0.00000009        -0.00000023        -0.00000076
      z      0.00000000         0.00000000         0.00000000


  Time used in ONEDRV     is       1.82 seconds
  Time used in HUCKEL     is       0.52 seconds
  Time used in OVERLAP    is       0.29 seconds
  Time used in POPOVLP    is       0.57 seconds
  Time used in R2         is       0.37 seconds
  Time used in R4         is       0.46 seconds
  Time used in DIPLEN     is       0.57 seconds
  Time used in QUADRUP    is       1.19 seconds
  Time used in KINENE     is       0.49 seconds
  Time used in GABGEN     is       8.01 seconds
  Total CPU  time used in HERMIT:  14.30 seconds
  Total wall time used in HERMIT:  14.71 seconds


                        .----------------------------------.
                        | End of Integral Section (HERMIT) |
                        `----------------------------------'



                   .--------------------------------------------.
                   | Starting in Wave Function Section (SIRIUS) |
                   `--------------------------------------------'



@ Primary orbitals are deleted during canonical orthonormalization
@   because of detected numerical linear dependence or too large coefficients.
@ Eigenvalue threshold for num. lin. dep. =  1.00D-06

@   5 MO components are deleted in symmetry    1
 Overlap eigenvalues of the deleted orbitals:
  9.78D-07  6.56D-07  6.26D-07  4.89D-07  4.44D-07

 Max MO coeff. of last deleted MO & limit:  5.61D+02  1.00D+03

WARNING: Orbitals have been deleted because of numerical
   linear dependence although not requested in input.

 *** Output from Huckel module :

     Using EWMO model:          T
     Using EHT  model:          F
     Number of Huckel orbitals each symmetry:   58

 EWMO - Energy Weighted Maximum Overlap - is a Huckel type method,
        which normally is better than Extended Huckel Theory.
 Reference: Linderberg and Ohrn, Propagators in Quantum Chemistry (Wiley, 1973)

 Huckel EWMO eigenvalues for symmetry :  1
          -20.684750     -20.683474     -15.677071     -15.675001     -11.359082
          -11.357415     -11.353225     -11.347774     -11.345861     -11.345413
           -1.964419      -1.783424      -1.682928      -1.470831      -1.433671
           -1.201513      -1.142494      -0.977556      -0.959778      -0.851863
           -0.830674      -0.777499      -0.732006      -0.723226      -0.674592
           -0.618895      -0.617907      -0.585176      -0.569349      -0.536174
           -0.521070      -0.494222      -0.489654      -0.485955      -0.476642
           -0.401925      -0.393268      -0.332908      -0.263469      -0.229215
           -0.220728      -0.201503      -0.199652      -0.190332      -0.166112
           -0.142690      -0.137254      -0.130788      -0.128057      -0.126733
           -0.125875      -0.122465      -0.106958      -0.101747      -0.091911
           -0.089595      -0.085067      -0.080563

 **********************************************************************
 *SIRIUS* a direct, restricted step, second order MCSCF program       *
 **********************************************************************

 
     Date and time (Linux)  : Tue May  6 05:40:53 2025
     Host name              : xm048                                   

 Title lines from ".mol" input file:
     blah                                                                    
     blah                                                                    

 Print level on unit LUPRI =   2 is   0
 Print level on unit LUW4  =   2 is   5

@    Restricted, closed shell Hartree-Fock calculation.

@    Time-dependent Hartree-Fock calculation (random phase approximation).
 Fock matrices are calculated directly and in parallel without use of integrals on disk.

 Initial molecular orbitals are obtained according to
 ".MOSTART EWMO  " input option

     Wave function specification
     ============================
@    Wave function type        --- HF ---
@    Number of closed shell electrons          74
@    Number of electrons in active shells       0
@    Total charge of the molecule               0

@    Spin multiplicity and 2 M_S                1         0
@    Total number of symmetries                 1 (point group: C1 )
@    Reference state symmetry                   1 (irrep name : A  )

     Orbital specifications
     ======================
@    Abelian symmetry species          All |    1
@                                          |  A  
                                       --- |  ---
@    Occupied SCF orbitals              37 |   37
@    Secondary orbitals               1126 | 1126
@    Total number of orbitals         1163 | 1163
@    Number of basis functions        1168 | 1168

     Optimization information
     ========================
@    Number of configurations                 1
@    Number of orbital rotations          41662
     ------------------------------------------
@    Total number of variables            41663

     Maximum number of Fock   iterations      0
     Maximum number of DIIS   iterations     60
     Maximum number of QC-SCF iterations     60
     Threshold for SCF convergence     1.00D-05

    INFORMATION: Switched to "new" integral transformation (from 1988 ;-) )
    because more than 255 basis functions.


 ***********************************************
 ***** DIIS acceleration of SCF iterations *****
 ***********************************************

 C1-DIIS algorithm; max error vectors =    8

 Iter      Total energy        Error norm    Delta(E)  DIIS dim.
 -----------------------------------------------------------------------------
   1  Screening settings (-IFTHRS, JTDIIS, DIFDEN, times)  -10    1    T  1.07D+02  1.08D+02
@  1    -488.435418878        6.03437D+00   -4.88D+02    1
      Virial theorem: -V/T =      2.004835
@    MULPOP   C_a     0.56; C_b    -0.69; C_c     0.12; C_d    -0.72; C_e    -0.17; C_f     0.10; N_a    -1.20; N_b     1.91; O_a    -1.66; O_b    -1.71; 
@             H_a     0.46; H_b     0.53; H_c     0.42; H_d     0.25; H_e     0.34; H_f     0.49; H_g     0.48; H_h     0.47; 
   1  Level shift: doubly occupied orbital energies shifted by -2.00D-01
 -----------------------------------------------------------------------------
   2  Screening settings (-IFTHRS, JTDIIS, DIFDEN, times)  -10    2    T  1.03D+02  1.03D+02
@  2    -490.126359175        2.87592D+00   -1.69D+00    2
      Virial theorem: -V/T =      2.001926
@    MULPOP   C_a    -0.10; C_b    -0.62; C_c    -0.24; C_d    -0.54; C_e    -0.43; C_f    -0.50; N_a    -0.92; N_b     0.10; O_a    -0.32; O_b    -0.21; 
@             H_a     0.54; H_b     0.49; H_c     0.45; H_d     0.36; H_e     0.40; H_f     0.46; H_g     0.52; H_h     0.55; 
   2  Level shift: doubly occupied orbital energies shifted by -1.00D-01
 -----------------------------------------------------------------------------
   3  Screening settings (-IFTHRS, JTDIIS, DIFDEN, times)  -10    3    T  1.01D+02  1.01D+02
@  3    -490.492586116        6.75416D-01   -3.66D-01    3
      Virial theorem: -V/T =      2.001023
@    MULPOP   C_a    -0.03; C_b    -0.60; C_c    -0.18; C_d    -0.52; C_e    -0.38; C_f    -0.29; N_a    -0.81; N_b     0.73; O_a    -0.63; O_b    -0.65; 
@             H_a     0.48; H_b     0.43; H_c     0.38; H_d     0.30; H_e     0.35; H_f     0.42; H_g     0.48; H_h     0.51; 
   3  Level shift: doubly occupied orbital energies shifted by -2.50D-02
 -----------------------------------------------------------------------------
   4  Screening settings (-IFTHRS, JTDIIS, DIFDEN, times)  -10    4    T  9.89D+01  9.97D+01
@  4    -490.521774429        2.21856D-01   -2.92D-02    4
      Virial theorem: -V/T =      2.002964
@    MULPOP   C_a     0.01; C_b    -0.55; C_c    -0.13; C_d    -0.48; C_e    -0.32; C_f    -0.37; N_a    -0.74; N_b     0.62; O_a    -0.60; O_b    -0.57; 
@             H_a     0.44; H_b     0.38; H_c     0.34; H_d     0.26; H_e     0.32; H_f     0.38; H_g     0.47; H_h     0.53; 
   4  Level shift: doubly occupied orbital energies shifted by -1.25D-02
 -----------------------------------------------------------------------------
   5  Screening settings (-IFTHRS, JTDIIS, DIFDEN, times)  -10    5    T  9.75D+01  9.80D+01
@  5    -490.527052086        8.34139D-02   -5.28D-03    5
      Virial theorem: -V/T =      2.002341
@    MULPOP   C_a    -0.01; C_b    -0.56; C_c    -0.16; C_d    -0.49; C_e    -0.35; C_f    -0.34; N_a    -0.74; N_b     0.66; O_a    -0.60; O_b    -0.59; 
@             H_a     0.45; H_b     0.39; H_c     0.35; H_d     0.26; H_e     0.33; H_f     0.39; H_g     0.48; H_h     0.53; 
 -----------------------------------------------------------------------------
   6  Screening settings (-IFTHRS, JTDIIS, DIFDEN, times)  -14    6    F  1.08D+02  1.09D+02
@  6    -490.528178679        3.58896D-02   -1.13D-03    6
      Virial theorem: -V/T =      2.002194
@    MULPOP   C_a    -0.02; C_b    -0.56; C_c    -0.16; C_d    -0.49; C_e    -0.35; C_f    -0.35; N_a    -0.74; N_b     0.66; O_a    -0.60; O_b    -0.58; 
@             H_a     0.45; H_b     0.39; H_c     0.35; H_d     0.26; H_e     0.33; H_f     0.39; H_g     0.48; H_h     0.54; 
 -----------------------------------------------------------------------------
   7  Screening settings (-IFTHRS, JTDIIS, DIFDEN, times)  -14    7    T  1.05D+02  1.05D+02
@  7    -490.528429543        1.72918D-02   -2.51D-04    7
      Virial theorem: -V/T =      2.002251
@    MULPOP   C_a    -0.01; C_b    -0.56; C_c    -0.16; C_d    -0.49; C_e    -0.35; C_f    -0.35; N_a    -0.74; N_b     0.66; O_a    -0.59; O_b    -0.59; 
@             H_a     0.45; H_b     0.39; H_c     0.35; H_d     0.26; H_e     0.33; H_f     0.39; H_g     0.48; H_h     0.54; 
 -----------------------------------------------------------------------------
   8  Screening settings (-IFTHRS, JTDIIS, DIFDEN, times)  -14    8    T  1.05D+02  1.06D+02
@  8    -490.528481151        6.85632D-03   -5.16D-05    8
      Virial theorem: -V/T =      2.002244
@    MULPOP   C_a    -0.02; C_b    -0.56; C_c    -0.16; C_d    -0.49; C_e    -0.35; C_f    -0.35; N_a    -0.75; N_b     0.66; O_a    -0.60; O_b    -0.58; 
@             H_a     0.45; H_b     0.39; H_c     0.35; H_d     0.26; H_e     0.33; H_f     0.39; H_g     0.48; H_h     0.54; 
 -----------------------------------------------------------------------------
   9  Screening settings (-IFTHRS, JTDIIS, DIFDEN, times)  -14    9    T  1.04D+02  1.05D+02
@  9    -490.528488832        2.24200D-03   -7.68D-06    8
      Virial theorem: -V/T =      2.002232
@    MULPOP   C_a    -0.02; C_b    -0.55; C_c    -0.16; C_d    -0.49; C_e    -0.35; C_f    -0.35; N_a    -0.75; N_b     0.66; O_a    -0.60; O_b    -0.58; 
@             H_a     0.45; H_b     0.39; H_c     0.35; H_d     0.26; H_e     0.33; H_f     0.39; H_g     0.48; H_h     0.54; 
 -----------------------------------------------------------------------------
  10  Screening settings (-IFTHRS, JTDIIS, DIFDEN, times)  -14   10    T  1.03D+02  1.04D+02
@ 10    -490.528489951        1.08352D-03   -1.12D-06    8
      Virial theorem: -V/T =      2.002234
@    MULPOP   C_a    -0.02; C_b    -0.55; C_c    -0.16; C_d    -0.49; C_e    -0.35; C_f    -0.35; N_a    -0.75; N_b     0.66; O_a    -0.60; O_b    -0.58; 
@             H_a     0.45; H_b     0.39; H_c     0.35; H_d     0.26; H_e     0.33; H_f     0.39; H_g     0.48; H_h     0.54; 
 -----------------------------------------------------------------------------
  11  Screening settings (-IFTHRS, JTDIIS, DIFDEN, times)  -14   11    T  1.03D+02  1.03D+02
@ 11    -490.528490222        5.75886D-04   -2.71D-07    8
      Virial theorem: -V/T =      2.002234
@    MULPOP   C_a    -0.02; C_b    -0.55; C_c    -0.16; C_d    -0.49; C_e    -0.35; C_f    -0.35; N_a    -0.75; N_b     0.66; O_a    -0.60; O_b    -0.58; 
@             H_a     0.45; H_b     0.39; H_c     0.35; H_d     0.26; H_e     0.32; H_f     0.39; H_g     0.48; H_h     0.54; 
 -----------------------------------------------------------------------------
  12  Screening settings (-IFTHRS, JTDIIS, DIFDEN, times)  -14   12    T  1.03D+02  1.03D+02
@ 12    -490.528490310        1.82464D-04   -8.86D-08    8
      Virial theorem: -V/T =      2.002234
@    MULPOP   C_a    -0.02; C_b    -0.55; C_c    -0.16; C_d    -0.49; C_e    -0.35; C_f    -0.35; N_a    -0.75; N_b     0.66; O_a    -0.59; O_b    -0.58; 
@             H_a     0.45; H_b     0.39; H_c     0.35; H_d     0.26; H_e     0.32; H_f     0.39; H_g     0.48; H_h     0.54; 
 -----------------------------------------------------------------------------
  13  Screening settings (-IFTHRS, JTDIIS, DIFDEN, times)  -14   13    T  1.02D+02  1.02D+02
@ 13    -490.528490319        8.72491D-05   -8.52D-09    8
      Virial theorem: -V/T =      2.002234
@    MULPOP   C_a    -0.02; C_b    -0.55; C_c    -0.16; C_d    -0.49; C_e    -0.35; C_f    -0.35; N_a    -0.75; N_b     0.66; O_a    -0.59; O_b    -0.58; 
@             H_a     0.45; H_b     0.39; H_c     0.35; H_d     0.26; H_e     0.32; H_f     0.39; H_g     0.48; H_h     0.54; 
 -----------------------------------------------------------------------------
  14  Screening settings (-IFTHRS, JTDIIS, DIFDEN, times)  -14   14    T  1.00D+02  1.01D+02
@ 14    -490.528490320        2.62758D-05   -1.08D-09    8
      Virial theorem: -V/T =      2.002234
@    MULPOP   C_a    -0.02; C_b    -0.55; C_c    -0.16; C_d    -0.49; C_e    -0.35; C_f    -0.35; N_a    -0.75; N_b     0.66; O_a    -0.59; O_b    -0.58; 
@             H_a     0.45; H_b     0.39; H_c     0.35; H_d     0.26; H_e     0.32; H_f     0.39; H_g     0.48; H_h     0.54; 
 -----------------------------------------------------------------------------
  15  Screening settings (-IFTHRS, JTDIIS, DIFDEN, times)  -14   15    T  9.96D+01  1.00D+02
@ 15    -490.528490320        1.08096D-05   -1.01D-10    8
      Virial theorem: -V/T =      2.002234
@    MULPOP   C_a    -0.02; C_b    -0.55; C_c    -0.16; C_d    -0.49; C_e    -0.35; C_f    -0.35; N_a    -0.75; N_b     0.66; O_a    -0.59; O_b    -0.58; 
@             H_a     0.45; H_b     0.39; H_c     0.35; H_d     0.26; H_e     0.32; H_f     0.39; H_g     0.48; H_h     0.54; 
 -----------------------------------------------------------------------------
  16  Screening settings (-IFTHRS, JTDIIS, DIFDEN, times)  -14   16    T  9.99D+01  1.01D+02
@ 16    -490.528490320        5.59130D-06   -1.84D-11    8

@ *** DIIS converged in  16 iterations !
@     Converged SCF energy, gradient:   -490.528490320120    5.59D-06
    - total time used in SIRFCK :              0.00 seconds


 *** SCF orbital energy analysis ***

 Only the 20 lowest virtual orbital energies printed in each symmetry.

 Number of electrons :   74
 Orbital occupations :   37

 Sym       Hartree-Fock orbital energies

1 A     -20.57690735   -20.57410293   -15.82883776   -15.60846505   -11.32341730
        -11.28199865   -11.27904961   -11.27613765   -11.24501234   -11.24123218
         -1.56893809    -1.36644925    -1.25581197    -1.13284202    -1.09061147
         -1.02087996    -0.93634585    -0.84415128    -0.79876561    -0.77987030
         -0.74642061    -0.72085551    -0.70560006    -0.69078221    -0.68830387
         -0.64171154    -0.60060320    -0.58466442    -0.55351899    -0.54244280
         -0.52687895    -0.47393691    -0.47336117    -0.47050864    -0.43269155
         -0.39389784    -0.28734800     0.00842246     0.01929558     0.02892198
          0.03814100     0.03935854     0.04615956     0.05793958     0.05828131
          0.06948191     0.07075262     0.07478106     0.07864180     0.08130400
          0.08268149     0.08966172     0.09619069     0.09677497     0.10145671
          0.10844126     0.11334595

    E(LUMO) :     0.00842246 au (symmetry 1)
  - E(HOMO) :    -0.28734800 au (symmetry 1)
  ------------------------------------------
    gap     :     0.29577046 au

 --- Writing SIRIFC interface file

 CPU and wall time for SCF :    1821.633    1830.836


                       .-----------------------------------.
                       | --- Final results from SIRIUS --- |
                       `-----------------------------------'


@    Spin multiplicity:           1
@    Spatial symmetry:            1 ( irrep  A   in C1  )
@    Total charge of molecule:    0

@    Final HF energy:            -490.528490320120                 
@    Nuclear repulsion:           451.042870482930
@    Electronic energy:          -941.571360803050

@    Final gradient norm:           0.000005591302

 
     Date and time (Linux)  : Tue May  6 06:11:27 2025
     Host name              : xm048                                   

File label for MO orbitals:   6May25   FOCKDIIS

 (Only coefficients > 0.0100 are printed.)

 Molecular orbitals for symmetry species 1  (A  )
 ------------------------------------------------

    Orbital        28       29       30       31       32       33       34
   2 C_a :1s    -0.0879  -0.0354  -0.0000   0.0286   0.0139   0.0000  -0.0006
   4 C_a :1s     0.0230  -0.0122   0.0000   0.0166  -0.0062  -0.0000  -0.0124
   5 C_a :1s     0.0633   0.1072   0.0000  -0.0595   0.0390   0.0000  -0.0704
   6 C_a :1s    -0.0273   0.0221  -0.0000   0.0266   0.0004   0.0000   0.1008
   7 C_a :2px    0.3777   0.2126  -0.0000  -0.0741  -0.0232   0.0000   0.0029
   8 C_a :2py   -0.1671  -0.2239  -0.0000   0.0742  -0.0026   0.0000  -0.0009
   9 C_a :2pz   -0.0000   0.0000   0.4282  -0.0000   0.0000  -0.0379  -0.0000
  13 C_a :2px   -0.0360   0.0082   0.0000  -0.0241   0.0118  -0.0000   0.0095
  14 C_a :2py   -0.0248  -0.0160  -0.0000   0.0090   0.0008   0.0000  -0.0060
  15 C_a :2pz   -0.0000   0.0000  -0.0171   0.0000   0.0000   0.0011  -0.0000
  16 C_a :2px    0.0231   0.0131   0.0000   0.0653  -0.0356  -0.0000   0.0363
  17 C_a :2py   -0.0435  -0.0477   0.0000   0.0041   0.0166  -0.0000   0.0169
  18 C_a :2pz   -0.0000  -0.0000  -0.0493  -0.0000   0.0000   0.0055   0.0000
  19 C_a :2px    0.0014  -0.0009   0.0000  -0.0050  -0.0101  -0.0000  -0.0043
  20 C_a :2py    0.0046   0.0080   0.0000   0.0106   0.0018  -0.0000   0.0016
  27 C_a :3d2-   0.0014  -0.0126  -0.0000   0.0067  -0.0013   0.0000   0.0006
  28 C_a :3d1-  -0.0000   0.0000   0.0115  -0.0000   0.0000  -0.0051   0.0000
  31 C_a :3d2+  -0.0125  -0.0102   0.0000   0.0044   0.0001  -0.0000  -0.0003
  32 C_a :3d2-   0.0052   0.0138  -0.0000  -0.0120  -0.0040   0.0000   0.0020
  33 C_a :3d1-  -0.0000   0.0000   0.0109  -0.0000   0.0000  -0.0083  -0.0000
  36 C_a :3d2+  -0.0137  -0.0034  -0.0000   0.0052  -0.0073   0.0000   0.0006
  37 C_a :3d2-  -0.0078   0.0018   0.0000  -0.0139  -0.0026   0.0000   0.0230
  38 C_a :3d1-  -0.0000  -0.0000  -0.0176  -0.0000  -0.0000  -0.0094  -0.0000
  39 C_a :3d0    0.0101  -0.0039  -0.0000   0.0003   0.0040   0.0000  -0.0094
  41 C_a :3d2+  -0.0399  -0.0027  -0.0000  -0.0185  -0.0222   0.0000  -0.0065
  56 C_a :4f3-  -0.0033  -0.0082   0.0000   0.0146  -0.0015   0.0000   0.0024
  82 C_b :1s     0.0444  -0.0125   0.0000   0.0633  -0.0188  -0.0000   0.0070
  84 C_b :1s    -0.0087   0.0002  -0.0000   0.0275  -0.0038   0.0000  -0.0147
  85 C_b :1s     0.0406   0.0295  -0.0000  -0.0204  -0.0403   0.0000   0.0594
  86 C_b :1s    -0.0229   0.0099   0.0000  -0.0192  -0.0693  -0.0000   0.0273
  87 C_b :2px   -0.4375  -0.1953   0.0000   0.0136   0.0350  -0.0000  -0.0081
  88 C_b :2py   -0.1184   0.3549  -0.0000  -0.3162   0.0331   0.0000  -0.0119
  89 C_b :2pz   -0.0000   0.0000   0.2810  -0.0000   0.0000   0.1592  -0.0000
  93 C_b :2px    0.0335   0.0038   0.0000  -0.0178   0.0064  -0.0000   0.0104
  94 C_b :2py    0.0177   0.0042  -0.0000  -0.0174   0.0003   0.0000   0.0093
  96 C_b :2px    0.0643   0.0249   0.0000   0.1145  -0.0474  -0.0000   0.0168
  97 C_b :2py    0.0301   0.0839  -0.0000   0.0417  -0.0108   0.0000  -0.0263
  98 C_b :2pz   -0.0000   0.0000  -0.0120  -0.0000   0.0000  -0.0019   0.0000
  99 C_b :2px    0.0010  -0.0112  -0.0000  -0.0165   0.0086   0.0000  -0.0231
 100 C_b :2py    0.0058  -0.0001  -0.0000  -0.0122   0.0199   0.0000  -0.0047
 107 C_b :3d2-   0.0033  -0.0129  -0.0000   0.0129  -0.0009   0.0000   0.0001
 111 C_b :3d2+  -0.0143  -0.0110   0.0000   0.0077   0.0018  -0.0000   0.0003
 112 C_b :3d2-   0.0341   0.0253   0.0000  -0.0179   0.0021  -0.0000   0.0001
 115 C_b :3d1+   0.0000   0.0000   0.0102  -0.0000   0.0000   0.0027   0.0000
 116 C_b :3d2+  -0.0215   0.0192   0.0000  -0.0416   0.0191  -0.0000   0.0141
 117 C_b :3d2-   0.0363   0.0020  -0.0000  -0.0262  -0.0058  -0.0000  -0.0054
 118 C_b :3d1-   0.0000   0.0000   0.0071   0.0000  -0.0000   0.0196   0.0000
 121 C_b :3d2+  -0.0127   0.0115   0.0000  -0.0020  -0.0093  -0.0000   0.0161
 136 C_b :4f3-   0.0102   0.0018  -0.0000   0.0207  -0.0098  -0.0000  -0.0006
 142 C_b :4f3+   0.0105   0.0140   0.0000  -0.0005  -0.0026  -0.0000  -0.0010
 162 C_c :1s    -0.0352  -0.0094  -0.0000   0.0770   0.0275   0.0000   0.0069
 164 C_c :1s    -0.0006  -0.0077  -0.0000   0.0538  -0.0358   0.0000   0.0053
 165 C_c :1s     0.0316   0.0384  -0.0000   0.0346  -0.0101   0.0000  -0.0035
 166 C_c :1s     0.0020  -0.0730  -0.0000  -0.0743  -0.1408   0.0000  -0.0640
 167 C_c :2px    0.2779  -0.0630   0.0000  -0.1550  -0.0712  -0.0000  -0.0116
 168 C_c :2py    0.2605  -0.2211   0.0000   0.3761  -0.0266  -0.0000   0.0192
 169 C_c :2pz    0.0000   0.0000   0.1496  -0.0000   0.0000   0.3553   0.0000
 173 C_c :2px   -0.0381  -0.0130   0.0000  -0.0073   0.0265  -0.0000  -0.0043
 174 C_c :2py   -0.0205  -0.0062   0.0000   0.0140   0.0034  -0.0000   0.0146
 176 C_c :2px    0.0783   0.1269   0.0000   0.0420   0.0469  -0.0000   0.0225
 177 C_c :2py    0.0538   0.0719   0.0000   0.0922  -0.0112  -0.0000  -0.0047
 179 C_c :2px    0.0227   0.0162   0.0000   0.0122   0.0292  -0.0000  -0.0197
 180 C_c :2py    0.0090  -0.0105   0.0000   0.0001  -0.0282  -0.0000  -0.0061
 187 C_c :3d2-   0.0113  -0.0065  -0.0000   0.0194  -0.0015  -0.0000   0.0022
 191 C_c :3d2+  -0.0094  -0.0043   0.0000   0.0109   0.0010  -0.0000   0.0006
 192 C_c :3d2-   0.0032  -0.0017   0.0000  -0.0652   0.0235  -0.0000   0.0178
 194 C_c :3d0   -0.0032  -0.0032   0.0000   0.0104   0.0016  -0.0000   0.0012
 196 C_c :3d2+  -0.0234   0.0271   0.0000  -0.0424   0.0065  -0.0000   0.0099
 197 C_c :3d2-  -0.0017  -0.0006   0.0000  -0.0177   0.0379   0.0000  -0.0014
 199 C_c :3d0    0.0023   0.0013   0.0000   0.0173   0.0225  -0.0000   0.0095
 200 C_c :3d1+   0.0000   0.0000  -0.0153  -0.0000  -0.0000   0.0141   0.0000
 201 C_c :3d2+  -0.0166   0.0330  -0.0000  -0.0266  -0.0321   0.0000  -0.0092
 216 C_c :4f3-   0.0045   0.0238  -0.0000   0.0087   0.0021   0.0000   0.0022
 220 C_c :4f1+  -0.0113  -0.0078  -0.0000  -0.0043   0.0019   0.0000   0.0004
 222 C_c :4f3+   0.0103  -0.0023   0.0000   0.0127   0.0075  -0.0000  -0.0004
 242 C_d :1s    -0.0683  -0.0032  -0.0000   0.0400  -0.0372  -0.0000   0.0080
 244 C_d :1s     0.0195  -0.0068   0.0000   0.0609   0.0031  -0.0000   0.0128
 245 C_d :1s     0.0241  -0.0462  -0.0000   0.0446   0.0149   0.0000   0.1377
 246 C_d :1s     0.0125   0.0395  -0.0000  -0.0376  -0.0311   0.0000  -0.1416
 247 C_d :2px   -0.2452   0.0004  -0.0000   0.1743   0.0887   0.0000   0.0063
 248 C_d :2py   -0.1709  -0.2320   0.0000  -0.3762   0.0664  -0.0000  -0.0605
 249 C_d :2pz    0.0000  -0.0000   0.0934  -0.0000  -0.0000   0.4353   0.0000
 253 C_d :2px    0.0370  -0.0164  -0.0000   0.0131   0.0253   0.0000  -0.0087
 254 C_d :2py    0.0105  -0.0044   0.0000  -0.0169   0.0106  -0.0000  -0.0022
 256 C_d :2px   -0.0423   0.1176  -0.0000  -0.0181   0.0592   0.0000  -0.0165
 257 C_d :2py   -0.0417   0.0567   0.0000  -0.0926   0.0707   0.0000  -0.0043
 259 C_d :2px    0.0077   0.0150  -0.0000   0.0001   0.1113   0.0000  -0.0383
 260 C_d :2py    0.0017  -0.0033  -0.0000  -0.0011   0.0501   0.0000  -0.0194
 267 C_d :3d2-   0.0097   0.0072  -0.0000   0.0199  -0.0026   0.0000   0.0023
 272 C_d :3d2-   0.0061  -0.0047   0.0000  -0.0635  -0.0077  -0.0000   0.0093
 273 C_d :3d1-  -0.0000  -0.0000  -0.0031   0.0000  -0.0000  -0.0104  -0.0000
 275 C_d :3d1+  -0.0000  -0.0000  -0.0047   0.0000  -0.0000   0.0131  -0.0000
 276 C_d :3d2+  -0.0187  -0.0186   0.0000  -0.0327   0.0146  -0.0000  -0.0146
 277 C_d :3d2-  -0.0003  -0.0073   0.0000  -0.0169  -0.0164  -0.0000  -0.0186
 278 C_d :3d1-   0.0000   0.0000   0.0020  -0.0000  -0.0000   0.0158   0.0000
 279 C_d :3d0    0.0003  -0.0023   0.0000   0.0111  -0.0004  -0.0000   0.0107
 280 C_d :3d1+   0.0000  -0.0000  -0.0157  -0.0000  -0.0000   0.0033  -0.0000
 281 C_d :3d2+  -0.0272  -0.0182  -0.0000  -0.0263  -0.0779  -0.0000  -0.0415
 296 C_d :4f3-  -0.0080   0.0192  -0.0000  -0.0097  -0.0000   0.0000   0.0020
 302 C_d :4f3+  -0.0041  -0.0048  -0.0000  -0.0123   0.0036   0.0000   0.0021
 322 C_e :1s     0.0867   0.0133   0.0000   0.0849   0.0281  -0.0000  -0.0513
 324 C_e :1s    -0.0011  -0.0047  -0.0000   0.0193   0.0059   0.0000  -0.0560
 325 C_e :1s     0.0409  -0.0476   0.0000  -0.0327  -0.0140  -0.0000  -0.0722
 326 C_e :1s     0.0202   0.0119   0.0000  -0.0273   0.0570  -0.0000   0.1062
 327 C_e :2px    0.3771  -0.2121  -0.0000  -0.0394  -0.1456  -0.0000   0.0264
 328 C_e :2py    0.0766   0.3286  -0.0000   0.3163  -0.0484   0.0000   0.0823
 329 C_e :2pz   -0.0000  -0.0000   0.0449   0.0000  -0.0000   0.3782  -0.0000
 333 C_e :2px   -0.0397   0.0048  -0.0000   0.0053   0.0067   0.0000   0.0172
 334 C_e :2py   -0.0180   0.0122   0.0000   0.0184   0.0250  -0.0000  -0.0180
 336 C_e :2px   -0.0448  -0.0049   0.0000  -0.1104  -0.0371  -0.0000  -0.0345
 337 C_e :2py   -0.0058   0.0754   0.0000  -0.0448   0.0678  -0.0000  -0.0472
 339 C_e :2px    0.0002   0.0018   0.0000   0.0160  -0.0033  -0.0000   0.0699
 340 C_e :2py   -0.0033   0.0098   0.0000   0.0138   0.0282  -0.0000   0.0784
 347 C_e :3d2-  -0.0026   0.0138  -0.0000   0.0132  -0.0029   0.0000   0.0022
 351 C_e :3d2+  -0.0129   0.0093  -0.0000   0.0059   0.0047   0.0000  -0.0032
 352 C_e :3d2-   0.0233  -0.0111   0.0000  -0.0172   0.0038  -0.0000   0.0004
 353 C_e :3d1-  -0.0000  -0.0000  -0.0029   0.0000  -0.0000   0.0115  -0.0000
 356 C_e :3d2+  -0.0091  -0.0067   0.0000  -0.0281   0.0076  -0.0000  -0.0135
 357 C_e :3d2-   0.0384  -0.0032   0.0000  -0.0179   0.0483  -0.0000   0.0182
 358 C_e :3d1-   0.0000   0.0000  -0.0163  -0.0000   0.0000  -0.0146  -0.0000
 359 C_e :3d0   -0.0076  -0.0047  -0.0000   0.0020  -0.0183   0.0000  -0.0062
 361 C_e :3d2+   0.0004   0.0054   0.0000  -0.0042  -0.0571  -0.0000   0.0038
 376 C_e :4f3-  -0.0072   0.0035   0.0000  -0.0169  -0.0111  -0.0000  -0.0157
 382 C_e :4f3+  -0.0093   0.0133  -0.0000   0.0011  -0.0033   0.0000   0.0185
 402 C_f :1s    -0.0867   0.0020  -0.0000  -0.0024  -0.1085   0.0000  -0.0091
 404 C_f :1s     0.0177   0.0046  -0.0000   0.0121  -0.0228   0.0000   0.0450
 405 C_f :1s     0.0310  -0.1159  -0.0000  -0.0777  -0.0030   0.0000  -0.1084
 406 C_f :1s     0.0231   0.0100  -0.0000   0.0610   0.2240   0.0000   0.0097
 407 C_f :2px   -0.3113   0.2354   0.0000   0.1027   0.1852  -0.0000  -0.0411
 408 C_f :2py    0.1443  -0.1350  -0.0000  -0.0521   0.2622   0.0000   0.1388
 409 C_f :2pz   -0.0000  -0.0000   0.0247   0.0000  -0.0000   0.2948  -0.0000
 413 C_f :2px    0.0088   0.0010  -0.0000   0.0084  -0.0346   0.0000   0.0651
 414 C_f :2py    0.0225  -0.0222  -0.0000  -0.0062  -0.0131   0.0000   0.0027
 416 C_f :2px   -0.0172  -0.0078   0.0000  -0.0747   0.0000  -0.0000   0.1522
 417 C_f :2py    0.0356  -0.0448  -0.0000  -0.0118  -0.0556  -0.0000  -0.0344
 419 C_f :2px    0.0147  -0.0037  -0.0000   0.0144   0.0591   0.0000  -0.0864
 420 C_f :2py    0.0035  -0.0002  -0.0000  -0.0068   0.0184   0.0000  -0.0390
 427 C_f :3d2-  -0.0027   0.0113   0.0000   0.0078  -0.0132  -0.0000  -0.0047
 432 C_f :3d2-  -0.0006   0.0030  -0.0000  -0.0043   0.0097   0.0000  -0.0216
 435 C_f :3d1+  -0.0000  -0.0000  -0.0005   0.0000   0.0000   0.0128  -0.0000
 436 C_f :3d2+  -0.0147   0.0100  -0.0000   0.0084   0.0252   0.0000  -0.0178
 437 C_f :3d2-  -0.0018   0.0014   0.0000  -0.0061   0.0569  -0.0000   0.0185
 438 C_f :3d1-  -0.0000  -0.0000   0.0069   0.0000  -0.0000   0.0127   0.0000
 441 C_f :3d2+  -0.0271   0.0130   0.0000   0.0025   0.0206  -0.0000  -0.0473
 449 C_f :4f3-   0.0001  -0.0005  -0.0000  -0.0008  -0.0054   0.0000   0.0152
 456 C_f :4f3-   0.0035  -0.0078   0.0000  -0.0126  -0.0119  -0.0000   0.0055
 462 C_f :4f3+   0.0005  -0.0024  -0.0000   0.0014   0.0014   0.0000   0.0109
 482 N_a :1s     0.0183  -0.0423  -0.0000   0.0269  -0.0063   0.0000   0.0010
 484 N_a :1s    -0.0049  -0.0103   0.0000   0.0061   0.0004  -0.0000   0.0008
 485 N_a :1s    -0.0030  -0.0255  -0.0000  -0.0018   0.0012  -0.0000  -0.0301
 486 N_a :1s    -0.0104  -0.0152   0.0000   0.0021  -0.0019  -0.0000  -0.0392
 487 N_a :2px   -0.1892  -0.0041   0.0000  -0.0260   0.0126  -0.0000  -0.0022
 488 N_a :2py    0.0680   0.1203   0.0000  -0.0406   0.0069  -0.0000  -0.0004
 489 N_a :2pz    0.0000  -0.0000   0.6436   0.0000  -0.0000  -0.2836  -0.0000
 498 N_a :2pz    0.0000   0.0000   0.0213   0.0000  -0.0000  -0.0111  -0.0000
 499 N_a :2px    0.0103   0.0025  -0.0000   0.0011   0.0064   0.0000   0.0040
 501 N_a :2pz    0.0000  -0.0000   0.0153   0.0000  -0.0000  -0.0067  -0.0000
 513 N_a :3d1-  -0.0000   0.0000  -0.0102  -0.0000   0.0000   0.0020   0.0000
 562 N_b :1s     0.0144   0.0265  -0.0000   0.0211  -0.0257  -0.0000  -0.0051
 565 N_b :1s    -0.0052   0.0155   0.0000   0.0012  -0.0933  -0.0000   0.0213
 566 N_b :1s    -0.0361  -0.0036  -0.0000  -0.0227  -0.1471  -0.0000  -0.0477
 567 N_b :2px    0.0830   0.0055  -0.0000   0.0262  -0.1270   0.0000  -0.1127
 568 N_b :2py   -0.0500   0.0915   0.0000   0.0466  -0.2514  -0.0000  -0.0151
 569 N_b :2pz   -0.0000  -0.0000  -0.0082  -0.0000   0.0000  -0.0477  -0.0000
 573 N_b :2px   -0.0072   0.0027   0.0000   0.0018   0.0138  -0.0000  -0.0076
 574 N_b :2py    0.0030  -0.0027  -0.0000  -0.0009   0.0095   0.0000   0.0171
 576 N_b :2px   -0.0108  -0.0006   0.0000   0.0032  -0.0522  -0.0000  -0.0567
 577 N_b :2py   -0.0025  -0.0103  -0.0000  -0.0151  -0.0981   0.0000   0.0104
 578 N_b :2pz   -0.0000  -0.0000   0.0023  -0.0000   0.0000   0.0187  -0.0000
 579 N_b :2px   -0.0205   0.0018  -0.0000  -0.0083  -0.0619  -0.0000   0.0602
 580 N_b :2py   -0.0074  -0.0082  -0.0000  -0.0085  -0.0719  -0.0000  -0.0268
 587 N_b :3d2-  -0.0064   0.0013  -0.0000  -0.0013  -0.0323   0.0000   0.0036
 591 N_b :3d2+  -0.0060   0.0036  -0.0000  -0.0003   0.0095   0.0000   0.0259
 592 N_b :3d2-  -0.0023   0.0035   0.0000   0.0023  -0.0277  -0.0000  -0.0134
 596 N_b :3d2+  -0.0043   0.0019  -0.0000  -0.0001   0.0312  -0.0000  -0.0119
 597 N_b :3d2-   0.0030   0.0078   0.0000   0.0091   0.0192  -0.0000  -0.0436
 601 N_b :3d2+  -0.0079   0.0033  -0.0000   0.0075   0.0165  -0.0000  -0.1048
 609 N_b :4f3-  -0.0004   0.0009  -0.0000   0.0012   0.0042   0.0000  -0.0134
 642 O_a :1s    -0.0329   0.0334   0.0000   0.0189  -0.0113  -0.0000  -0.0049
 645 O_a :1s    -0.0139   0.0116  -0.0000   0.0053  -0.0182   0.0000  -0.0211
 646 O_a :1s    -0.0028   0.0050  -0.0000   0.0151   0.0304   0.0000  -0.1164
 647 O_a :2px   -0.0427   0.0648   0.0000  -0.0031   0.2030  -0.0000   0.7234
 648 O_a :2py    0.1078  -0.0453  -0.0000  -0.0195   0.4056   0.0000   0.3258
 649 O_a :2pz    0.0000   0.0000  -0.0100  -0.0000   0.0000  -0.0858   0.0000
 656 O_a :2px    0.0004   0.0049   0.0000  -0.0015   0.0422  -0.0000   0.0875
 657 O_a :2py    0.0076  -0.0037  -0.0000  -0.0046   0.0326   0.0000   0.0583
 658 O_a :2pz    0.0000   0.0000  -0.0015  -0.0000   0.0000  -0.0107   0.0000
 659 O_a :2px    0.0000   0.0051   0.0000   0.0021   0.0230  -0.0000   0.0478
 660 O_a :2py    0.0021   0.0018  -0.0000   0.0029   0.0313   0.0000   0.0050
 672 O_a :3d2-  -0.0041   0.0027   0.0000   0.0000  -0.0030  -0.0000   0.0129
 676 O_a :3d2+  -0.0034  -0.0004   0.0000  -0.0003  -0.0100  -0.0000  -0.0167
 677 O_a :3d2-  -0.0030   0.0033   0.0000   0.0004   0.0045  -0.0000   0.0145
 681 O_a :3d2+  -0.0053   0.0009   0.0000   0.0010  -0.0167  -0.0000  -0.0229
 722 O_b :1s     0.0159   0.0050  -0.0000   0.0063  -0.0096   0.0000  -0.0032
 725 O_b :1s     0.0112  -0.0042   0.0000  -0.0006  -0.0379  -0.0000   0.0018
 726 O_b :1s     0.0091  -0.0031   0.0000  -0.0030  -0.0354  -0.0000   0.1132
 727 O_b :2px   -0.0764   0.0257   0.0000  -0.0058   0.2244  -0.0000   0.1664
 728 O_b :2py    0.0919   0.0466   0.0000   0.0881   0.7055  -0.0000  -0.5190
 729 O_b :2pz    0.0000   0.0000  -0.0111  -0.0000  -0.0000  -0.1155   0.0000
 736 O_b :2px   -0.0042   0.0008   0.0000  -0.0000   0.0094  -0.0000  -0.0117
 737 O_b :2py    0.0065   0.0041   0.0000   0.0089   0.0821  -0.0000  -0.0550
 738 O_b :2pz    0.0000   0.0000  -0.0015   0.0000  -0.0000  -0.0113   0.0000
 739 O_b :2px    0.0024  -0.0002   0.0000  -0.0002   0.0063  -0.0000   0.0191
 740 O_b :2py    0.0093   0.0019   0.0000   0.0068   0.0494  -0.0000  -0.0344
 752 O_b :3d2-   0.0036   0.0013   0.0000   0.0026   0.0152  -0.0000  -0.0137
 757 O_b :3d2-   0.0029   0.0013   0.0000   0.0027   0.0244  -0.0000  -0.0132
 801 H_a :1s     0.2809   0.3379   0.0000  -0.1304   0.0033  -0.0000   0.0003
 802 H_a :1s    -0.0094  -0.0107  -0.0000   0.0042   0.0002   0.0000  -0.0003
 803 H_a :1s    -0.0802  -0.0765  -0.0000   0.0249  -0.0122   0.0000  -0.0026
 804 H_a :1s    -0.1419  -0.1553  -0.0000  -0.0304   0.0290   0.0000   0.0242
 805 H_a :1s     0.0038   0.0056  -0.0000   0.0065   0.0119   0.0000   0.0011
 815 H_a :2px    0.0131   0.0118   0.0000   0.0024   0.0046  -0.0000  -0.0010
 816 H_a :2py   -0.0094  -0.0152  -0.0000  -0.0043   0.0152   0.0000   0.0055
 817 H_a :2pz   -0.0000  -0.0000  -0.0077  -0.0000   0.0000  -0.0105  -0.0000
 847 H_b :1s     0.1240   0.4628  -0.0000  -0.3293   0.0042   0.0000  -0.0068
 848 H_b :1s    -0.0038  -0.0153   0.0000   0.0103  -0.0003  -0.0000   0.0001
 849 H_b :1s    -0.0223  -0.0787   0.0000   0.0348   0.0199  -0.0000   0.0061
 850 H_b :1s    -0.0058  -0.1477   0.0000   0.0579  -0.0079  -0.0000   0.0485
 851 H_b :1s    -0.0047  -0.0052   0.0000   0.0024  -0.0206  -0.0000  -0.0000
 861 H_b :2px   -0.0155  -0.0062   0.0000   0.0011  -0.0034  -0.0000   0.0122
 862 H_b :2py   -0.0035   0.0169  -0.0000  -0.0037   0.0003   0.0000  -0.0031
 863 H_b :2pz   -0.0000  -0.0000  -0.0046  -0.0000  -0.0000  -0.0120  -0.0000
 893 H_c :1s     0.1687   0.1319   0.0000  -0.0321  -0.0011  -0.0000   0.0009
 895 H_c :1s    -0.0345  -0.0206  -0.0000   0.0067  -0.0000   0.0000   0.0049
 896 H_c :1s    -0.0490  -0.0065  -0.0000  -0.0089  -0.0149   0.0000   0.0025
 906 H_c :2pz   -0.0000  -0.0000   0.0142  -0.0000   0.0000  -0.0085   0.0000
 939 H_d :1s    -0.2292  -0.0622   0.0000  -0.0044   0.0110  -0.0000  -0.0023
 941 H_d :1s     0.0444   0.0152  -0.0000  -0.0080   0.0005   0.0000   0.0065
 942 H_d :1s     0.0784  -0.0068  -0.0000   0.0212   0.0271   0.0000  -0.0130
 952 H_d :2pz   -0.0000  -0.0000   0.0178  -0.0000   0.0000  -0.0113  -0.0000
 985 H_e :1s    -0.1249   0.1859  -0.0000  -0.4647   0.0111   0.0000  -0.0290
 986 H_e :1s     0.0046  -0.0058   0.0000   0.0143  -0.0006  -0.0000   0.0017
 987 H_e :1s     0.0185  -0.0307   0.0000   0.0253   0.0311  -0.0000   0.0358
 988 H_e :1s     0.0229  -0.0064   0.0000   0.1475   0.0272  -0.0000   0.0018
 989 H_e :1s    -0.0048  -0.0103   0.0000  -0.0065  -0.0368  -0.0000   0.0046
 996 H_e :2px    0.0039   0.0030  -0.0000   0.0106  -0.0014   0.0000  -0.0052
 997 H_e :2py   -0.0056   0.0060   0.0000  -0.0161   0.0082  -0.0000   0.0079
 999 H_e :2px   -0.0031  -0.0102   0.0000  -0.0042   0.0352  -0.0000  -0.0075
1000 H_e :2py   -0.0007  -0.0054   0.0000   0.0166   0.0126  -0.0000  -0.0106
1031 H_f :1s    -0.0731  -0.2297   0.0000  -0.4892  -0.0054  -0.0000  -0.0616
1032 H_f :1s     0.0029   0.0075  -0.0000   0.0156  -0.0003   0.0000   0.0013
1033 H_f :1s     0.0142   0.0412  -0.0000   0.0423  -0.0035   0.0000  -0.0079
1034 H_f :1s     0.0165   0.0426  -0.0000   0.1592  -0.0982   0.0000  -0.0560
1042 H_f :2px   -0.0049   0.0018  -0.0000  -0.0106   0.0022   0.0000  -0.0037
1043 H_f :2py    0.0003   0.0054   0.0000   0.0134  -0.0007  -0.0000   0.0049
1045 H_f :2px   -0.0045  -0.0049   0.0000   0.0041  -0.0276  -0.0000  -0.0081
1046 H_f :2py   -0.0081  -0.0090   0.0000  -0.0196  -0.0082  -0.0000   0.0092
1077 H_g :1s     0.1815  -0.4223   0.0000  -0.3083   0.0163  -0.0000  -0.0532
1078 H_g :1s    -0.0052   0.0134   0.0000   0.0094   0.0006   0.0000  -0.0000
1079 H_g :1s    -0.0325   0.1016   0.0000   0.0459   0.0215   0.0000   0.0204
1080 H_g :1s     0.0092   0.1680  -0.0000   0.0745   0.0563   0.0000   0.0116
1081 H_g :1s     0.0024   0.0032  -0.0000   0.0023   0.0212   0.0000   0.0033
1088 H_g :2px   -0.0030   0.0015  -0.0000  -0.0030  -0.0074   0.0000  -0.0115
1091 H_g :2px   -0.0018  -0.0118  -0.0000   0.0008   0.0245   0.0000  -0.0280
1092 H_g :2py    0.0042   0.0165   0.0000   0.0086   0.0314  -0.0000  -0.0154
1093 H_g :2pz    0.0000   0.0000  -0.0117  -0.0000   0.0000  -0.0132  -0.0000
1123 H_h :1s     0.2620  -0.2907  -0.0000  -0.1416   0.0860   0.0000   0.1417
1124 H_h :1s    -0.0101   0.0102  -0.0000   0.0043  -0.0004   0.0000   0.0001
1125 H_h :1s    -0.0853   0.0926   0.0000   0.0370   0.0142  -0.0000  -0.0217
1126 H_h :1s    -0.1204   0.1340   0.0000  -0.0001   0.1300  -0.0000   0.0931
1127 H_h :1s     0.0031  -0.0025   0.0000   0.0070   0.0128  -0.0000  -0.0150
1137 H_h :2px   -0.0149   0.0157   0.0000   0.0010   0.0111  -0.0000  -0.0045
1138 H_h :2py    0.0046  -0.0089  -0.0000   0.0052  -0.0108   0.0000  -0.0318

    Orbital        35       36       37       38       39       40       41
   2 C_a :1s    -0.0000   0.0000  -0.0000   0.0179  -0.0434   0.0249   0.0059
   3 C_a :1s    -0.0000   0.0000  -0.0000   0.0084  -0.0139   0.0002   0.0189
   4 C_a :1s     0.0000   0.0000   0.0000   0.0651   0.1056  -0.5536  -0.1698
   5 C_a :1s     0.0000   0.0000  -0.0000  -2.5622   2.4916   0.0453   0.1640
   6 C_a :1s    -0.0000   0.0000  -0.0000   0.4684  22.2490   8.9201  -5.9820
   7 C_a :2px    0.0000  -0.0000   0.0000   0.0010  -0.0232   0.0299   0.0017
   8 C_a :2py   -0.0000  -0.0000  -0.0000  -0.0579   0.0400  -0.0196  -0.0062
   9 C_a :2pz   -0.0020   0.1363   0.3022  -0.0000  -0.0000   0.0000   0.0000
  13 C_a :2px   -0.0000   0.0000  -0.0000   0.1694   0.1033   0.0982  -0.0475
  14 C_a :2py   -0.0000   0.0000  -0.0000   0.0780   0.1437  -0.0577  -0.0189
  16 C_a :2px    0.0000  -0.0000   0.0000   0.7223   0.9584   1.2961  -2.0040
  17 C_a :2py   -0.0000   0.0000  -0.0000  -0.7050  -0.4518  -2.0764   0.8064
  19 C_a :2px    0.0000  -0.0000   0.0000   4.9006  -4.9103  -2.8764  -0.5906
  20 C_a :2py    0.0000  -0.0000   0.0000   0.9875   3.5105  -2.9541  -2.5273
  21 C_a :2pz   -0.0052   0.0015   0.0152  -0.0000   0.0000   0.0000   0.0000
  30 C_a :3d1+   0.0006  -0.0166  -0.0182  -0.0000   0.0000   0.0000   0.0000
  32 C_a :3d2-  -0.0000  -0.0000  -0.0000   0.4447   0.0015   0.3547   0.1390
  34 C_a :3d0    0.0000  -0.0000   0.0000   0.1134  -0.0513  -0.1435  -0.0032
  35 C_a :3d1+   0.0017  -0.0241  -0.0246   0.0000   0.0000  -0.0000  -0.0000
  36 C_a :3d2+  -0.0000   0.0000  -0.0000  -0.0191   0.0575   0.1851   0.3163
  37 C_a :3d2-  -0.0000   0.0000  -0.0000   1.0309  -0.8133   1.2649  -0.0706
  39 C_a :3d0    0.0000  -0.0000   0.0000   0.5531  -0.2209  -1.2719   0.3317
  40 C_a :3d1+   0.0001  -0.0124  -0.0122   0.0000  -0.0000   0.0000   0.0000
  41 C_a :3d2+  -0.0000   0.0000  -0.0000   0.5108  -0.4144   0.5056   0.6731
  49 C_a :4f3-   0.0000  -0.0000  -0.0000  -0.0111   0.0260  -0.0083   0.0165
  53 C_a :4f1+   0.0000  -0.0000   0.0000  -0.0103  -0.0055   0.0049   0.0032
  55 C_a :4f3+  -0.0000   0.0000  -0.0000  -0.0100   0.0072  -0.0126   0.0267
  56 C_a :4f3-   0.0000   0.0000   0.0000  -0.0722  -0.0020  -0.1226  -0.0364
  58 C_a :4f1-   0.0000  -0.0000   0.0000  -0.0300   0.0213   0.0708  -0.0266
  60 C_a :4f1+  -0.0000   0.0000  -0.0000  -0.0027  -0.0413  -0.0106   0.0409
  62 C_a :4f3+   0.0000  -0.0000  -0.0000   0.0706  -0.0184  -0.1600   0.1541
  72 C_a :5g4-  -0.0000   0.0000  -0.0000  -0.0068   0.0050   0.0150   0.0176
  80 C_a :5g4+  -0.0000   0.0000   0.0000  -0.0103  -0.0111  -0.0259  -0.0013
  82 C_b :1s    -0.0000   0.0000   0.0000   0.0222   0.0348   0.0209   0.0039
  83 C_b :1s    -0.0000   0.0000   0.0000   0.0057  -0.0007   0.0373   0.0067
  84 C_b :1s     0.0000  -0.0000  -0.0000  -0.0446   0.1864  -0.5027   0.1099
  85 C_b :1s    -0.0000   0.0000  -0.0000  -1.1572  -0.0442  -4.0582  -2.5981
  86 C_b :1s    -0.0000   0.0000   0.0000   2.2353 -22.9778  -2.8949   4.0296
  87 C_b :2px   -0.0000   0.0000  -0.0000  -0.0077  -0.0149  -0.0170  -0.0053
  88 C_b :2py   -0.0000  -0.0000  -0.0000   0.0242   0.0362   0.0318   0.0077
  89 C_b :2pz   -0.0109   0.3941   0.4047   0.0000   0.0000  -0.0000  -0.0000
  93 C_b :2px   -0.0000  -0.0000   0.0000   0.3206   0.0020   0.0677  -0.0622
  94 C_b :2py   -0.0000  -0.0000  -0.0000   0.0045   0.0081   0.1231   0.0060
  96 C_b :2px   -0.0000   0.0000  -0.0000   1.6342  -0.4411   0.3178  -0.0836
  97 C_b :2py   -0.0000  -0.0000  -0.0000   0.9216  -1.7105   2.4749   1.1186
  98 C_b :2pz    0.0047   0.0140   0.0469   0.0000   0.0000  -0.0000  -0.0000
  99 C_b :2px   -0.0000  -0.0000  -0.0000   3.0528  -3.4671  -0.1510   6.9989
 100 C_b :2py   -0.0000  -0.0000  -0.0000   2.1430   2.7988   2.6796   1.8038
 101 C_b :2pz   -0.0035   0.0115   0.0334   0.0000   0.0000  -0.0000  -0.0000
 109 C_b :3d0   -0.0000   0.0000   0.0000   0.0004  -0.0035   0.0127   0.0008
 110 C_b :3d1+   0.0001   0.0021   0.0133   0.0000   0.0000  -0.0000  -0.0000
 112 C_b :3d2-  -0.0000  -0.0000   0.0000   0.3155  -0.0479   0.4505   0.0097
 113 C_b :3d1-  -0.0000  -0.0170  -0.0033  -0.0000  -0.0000   0.0000  -0.0000
 114 C_b :3d0    0.0000   0.0000  -0.0000   0.0146   0.0400   0.0665   0.1531
 115 C_b :3d1+   0.0009   0.0042   0.0167   0.0000   0.0000  -0.0000  -0.0000
 116 C_b :3d2+  -0.0000  -0.0000   0.0000   0.2598   0.0406   0.4986   0.0021
 117 C_b :3d2-   0.0000  -0.0000   0.0000   2.0174   0.3945   0.7450  -0.5796
 118 C_b :3d1-  -0.0022  -0.0131  -0.0071   0.0000  -0.0000  -0.0000   0.0000
 119 C_b :3d0    0.0000  -0.0000  -0.0000  -0.4877   0.5730  -0.3304  -0.0794
 120 C_b :3d1+   0.0033  -0.0084   0.0112   0.0000  -0.0000  -0.0000   0.0000
 121 C_b :3d2+  -0.0000   0.0000   0.0000  -0.6059   0.1297   1.7986  -0.5052
 129 C_b :4f3-  -0.0000   0.0000   0.0000   0.0040  -0.0174   0.0178  -0.0077
 136 C_b :4f3-   0.0000   0.0000  -0.0000   0.2073  -0.0891  -0.1117   0.0186
 138 C_b :4f1-   0.0000  -0.0000   0.0000   0.0237   0.0359   0.0087  -0.0298
 140 C_b :4f1+   0.0000  -0.0000  -0.0000   0.0311   0.0055  -0.0318  -0.0329
 142 C_b :4f3+  -0.0000   0.0000  -0.0000   0.0206  -0.2196  -0.0136   0.1088
 160 C_b :5g4+  -0.0000  -0.0000   0.0000  -0.0090   0.0013   0.0171   0.0067
 162 C_c :1s     0.0000  -0.0000  -0.0000  -0.0044  -0.0221   0.0267   0.0216
 163 C_c :1s     0.0000  -0.0000  -0.0000   0.0058   0.0106   0.0131  -0.0059
 164 C_c :1s    -0.0000   0.0000   0.0000  -0.3269   0.1082  -0.4149   0.2898
 165 C_c :1s     0.0000   0.0000   0.0000  -0.6989  -2.7214  -1.5608   1.0252
 166 C_c :1s     0.0000   0.0000   0.0000   4.1420  13.5485   4.3738 -13.3805
 167 C_c :2px   -0.0000  -0.0000   0.0000  -0.0029  -0.0138   0.0218   0.0093
 168 C_c :2py    0.0000   0.0000   0.0000  -0.0234   0.0252  -0.0338  -0.0271
 169 C_c :2pz   -0.0134   0.2866  -0.2383  -0.0000  -0.0000   0.0000   0.0000
 173 C_c :2px   -0.0000  -0.0000  -0.0000   0.0557   0.1051   0.0423   0.0552
 174 C_c :2py    0.0000   0.0000   0.0000   0.0164   0.0619   0.1655   0.0520
 176 C_c :2px   -0.0000  -0.0000   0.0000   0.0738  -0.9174   0.4719  -0.6199
 177 C_c :2py    0.0000  -0.0000   0.0000  -0.0209  -1.2169   0.4951   1.2484
 178 C_c :2pz    0.0086  -0.0037  -0.0102  -0.0000  -0.0000   0.0000   0.0000
 179 C_c :2px    0.0000  -0.0000   0.0000   2.4736  -3.7917  -2.6439  -2.3006
 180 C_c :2py    0.0000   0.0000   0.0000   0.9622  -2.9640  -2.2959  -4.7888
 181 C_c :2pz    0.0158   0.0097  -0.0181  -0.0000  -0.0000   0.0000   0.0000
 190 C_c :3d1+  -0.0001   0.0027   0.0191  -0.0000  -0.0000   0.0000  -0.0000
 192 C_c :3d2-   0.0000  -0.0000  -0.0000   0.2142   0.2618   0.5788  -0.0429
 194 C_c :3d0   -0.0000   0.0000  -0.0000  -0.0479   0.1631  -0.0177   0.0319
 195 C_c :3d1+  -0.0032  -0.0057   0.0252   0.0000   0.0000  -0.0000  -0.0000
 196 C_c :3d2+   0.0000  -0.0000   0.0000  -0.0314   0.1176   0.5091  -0.0750
 197 C_c :3d2-   0.0000  -0.0000  -0.0000   0.8338   0.3728   2.0278   0.4050
 198 C_c :3d1-  -0.0054  -0.0121  -0.0032   0.0000  -0.0000   0.0000   0.0000
 199 C_c :3d0   -0.0000   0.0000  -0.0000  -0.8300  -0.1858  -0.9517   0.7117
 200 C_c :3d1+  -0.0084  -0.0228  -0.0011   0.0000   0.0000  -0.0000   0.0000
 201 C_c :3d2+   0.0000  -0.0000   0.0000  -0.3225   0.7987   1.5367  -0.4743
 211 C_c :4f1-  -0.0000   0.0000   0.0000  -0.0031  -0.0000  -0.0116  -0.0018
 216 C_c :4f3-   0.0000  -0.0000   0.0000   0.0202  -0.0895  -0.0267   0.0191
 218 C_c :4f1-  -0.0000   0.0000  -0.0000   0.0168   0.0095  -0.0401  -0.0268
 220 C_c :4f1+  -0.0000  -0.0000  -0.0000  -0.0149   0.0823   0.0504   0.0053
 222 C_c :4f3+  -0.0000  -0.0000   0.0000  -0.0347  -0.1290   0.0307   0.1992
 232 C_c :5g4-   0.0000  -0.0000  -0.0000  -0.0019   0.0071  -0.0175   0.0062
 242 C_d :1s    -0.0000   0.0000  -0.0000   0.0053   0.0215   0.0261  -0.0221
 243 C_d :1s    -0.0000   0.0000  -0.0000   0.0005   0.0123   0.0178   0.0009
 244 C_d :1s     0.0000   0.0000   0.0000  -0.2093  -0.2333  -0.5494   0.3360
 245 C_d :1s    -0.0000  -0.0000  -0.0000  -0.9712  -1.8860  -2.0838   0.1613
 246 C_d :1s     0.0000  -0.0000   0.0000   3.6277 -12.3287   1.6671   6.2835
 247 C_d :2px    0.0000  -0.0000  -0.0000  -0.0014  -0.0104  -0.0230   0.0105
 248 C_d :2py    0.0000  -0.0000  -0.0000   0.0051   0.0221   0.0327  -0.0285
 249 C_d :2pz   -0.0124   0.0554  -0.4388   0.0000   0.0000  -0.0000  -0.0000
 253 C_d :2px   -0.0000  -0.0000  -0.0000   0.0867   0.1521  -0.1171   0.1625
 254 C_d :2py   -0.0000  -0.0000  -0.0000   0.0269   0.0093  -0.1066  -0.0434
 256 C_d :2px    0.0000  -0.0000  -0.0000  -0.9215   1.2505  -0.9036   0.0306
 257 C_d :2py    0.0000  -0.0000  -0.0000  -0.0184  -1.6731   0.6459  -0.3765
 258 C_d :2pz   -0.0028   0.0043  -0.0494   0.0000   0.0000  -0.0000   0.0000
 259 C_d :2px    0.0000  -0.0000  -0.0000   2.8792   3.5666   1.5819  10.4668
 260 C_d :2py    0.0000  -0.0000  -0.0000   1.3411   4.0391   2.2415   6.3145
 261 C_d :2pz   -0.0024  -0.0023  -0.0335   0.0000   0.0000  -0.0000  -0.0000
 270 C_d :3d1+   0.0001   0.0104  -0.0099  -0.0000  -0.0000  -0.0000  -0.0000
 272 C_d :3d2-  -0.0000  -0.0000  -0.0000   0.2861   0.3185   0.5415  -0.1494
 274 C_d :3d0    0.0000   0.0000  -0.0000  -0.0465  -0.0203  -0.0380   0.1060
 275 C_d :3d1+  -0.0059   0.0011  -0.0137   0.0000   0.0000  -0.0000  -0.0000
 276 C_d :3d2+  -0.0000  -0.0000  -0.0000   0.2013   0.1271   0.2545  -0.0893
 277 C_d :3d2-  -0.0000   0.0000  -0.0000   1.1287   1.4635   0.9003   0.4476
 278 C_d :3d1-   0.0064  -0.0117   0.0137   0.0000  -0.0000  -0.0000   0.0000
 279 C_d :3d0    0.0000  -0.0000   0.0000  -0.4012  -0.1232  -0.8092   0.3287
 280 C_d :3d1+  -0.0040  -0.0237  -0.0088   0.0000   0.0000  -0.0000   0.0000
 281 C_d :3d2+   0.0000   0.0000   0.0000   0.0796  -0.5226   1.0457  -0.5992
 296 C_d :4f3-   0.0000  -0.0000  -0.0000  -0.0311   0.1330   0.0149   0.0914
 298 C_d :4f1-  -0.0000  -0.0000   0.0000   0.0195   0.0822   0.0082   0.0056
 300 C_d :4f1+  -0.0000  -0.0000   0.0000   0.0128  -0.0075   0.0038   0.0132
 302 C_d :4f3+   0.0000  -0.0000  -0.0000   0.0175  -0.1742   0.0670  -0.0127
 312 C_d :5g4-  -0.0000  -0.0000  -0.0000  -0.0106  -0.0010  -0.0126   0.0038
 322 C_e :1s     0.0000   0.0000   0.0000  -0.0001  -0.0113   0.0126   0.0143
 323 C_e :1s    -0.0000  -0.0000   0.0000   0.0103  -0.0055   0.0208  -0.0113
 324 C_e :1s     0.0000   0.0000  -0.0000  -0.3197  -0.0533  -0.5836   0.1546
 325 C_e :1s     0.0000   0.0000   0.0000  -1.1320  -0.4549  -0.4120   1.1958
 326 C_e :1s     0.0000  -0.0000   0.0000   3.3346  14.8908   4.5067 -18.7780
 328 C_e :2py   -0.0000   0.0000   0.0000  -0.0069   0.0105  -0.0252  -0.0154
 329 C_e :2pz   -0.0030  -0.3415   0.0859  -0.0000  -0.0000   0.0000  -0.0000
 333 C_e :2px   -0.0000  -0.0000  -0.0000  -0.0886  -0.0556  -0.1235   0.2025
 334 C_e :2py   -0.0000  -0.0000  -0.0000  -0.0300  -0.0059  -0.1861   0.0315
 336 C_e :2px   -0.0000   0.0000   0.0000  -0.2094  -0.0954  -1.6216  -0.1416
 337 C_e :2py   -0.0000  -0.0000   0.0000  -1.1717  -1.8057  -2.3461   0.5642
 338 C_e :2pz   -0.0138   0.0032   0.0130  -0.0000  -0.0000   0.0000  -0.0000
 339 C_e :2px   -0.0000   0.0000   0.0000  -0.2399  -6.3508  -1.6102   2.9711
 340 C_e :2py   -0.0000  -0.0000   0.0000   0.7552   0.4348  -1.4512  -0.3239
 341 C_e :2pz   -0.0245  -0.0105   0.0106  -0.0000  -0.0000   0.0000  -0.0000
 350 C_e :3d1+  -0.0003   0.0138  -0.0165   0.0000   0.0000  -0.0000   0.0000
 352 C_e :3d2-  -0.0000  -0.0000   0.0000   0.2386   0.0039   0.3816  -0.2216
 353 C_e :3d1-  -0.0078  -0.0085  -0.0115  -0.0000  -0.0000   0.0000  -0.0000
 354 C_e :3d0   -0.0000   0.0000  -0.0000  -0.0365   0.0041  -0.0569  -0.0361
 355 C_e :3d1+   0.0000   0.0134  -0.0191   0.0000   0.0000  -0.0000  -0.0000
 356 C_e :3d2+  -0.0000  -0.0000   0.0000   0.2490  -0.0520   0.3674  -0.3106
 357 C_e :3d2-  -0.0000  -0.0000   0.0000   0.8038  -0.5578   1.7736  -0.8568
 358 C_e :3d1-  -0.0058  -0.0132  -0.0007   0.0000   0.0000  -0.0000  -0.0000
 359 C_e :3d0    0.0000   0.0000  -0.0000  -0.5882  -0.5773  -0.6995   0.7019
 360 C_e :3d1+   0.0003  -0.0153   0.0032   0.0000  -0.0000  -0.0000   0.0000
 361 C_e :3d2+   0.0000   0.0000   0.0000   0.2542  -1.1772   0.7419  -0.2464
 376 C_e :4f3-   0.0000   0.0000   0.0000   0.0684   0.0113  -0.0459   0.0488
 378 C_e :4f1-   0.0000   0.0000  -0.0000  -0.0047   0.0637   0.0170   0.0326
 380 C_e :4f1+  -0.0000  -0.0000  -0.0000   0.0028  -0.0333   0.0090   0.0381
 382 C_e :4f3+   0.0000  -0.0000  -0.0000  -0.0740  -0.1822  -0.0211   0.0710
 392 C_e :5g4-   0.0000  -0.0000   0.0000   0.0110  -0.0077   0.0167   0.0004
 402 C_f :1s     0.0000   0.0000  -0.0000   0.0011   0.0113   0.0212  -0.0365
 403 C_f :1s     0.0000  -0.0000  -0.0000   0.0014   0.0069   0.0146  -0.0179
 404 C_f :1s    -0.0000   0.0000   0.0000  -0.2731  -0.0520  -0.4244   0.0283
 405 C_f :1s     0.0000  -0.0000  -0.0000  -0.1425  -0.4072  -2.8086   3.8990
 406 C_f :1s    -0.0000  -0.0000  -0.0000   2.8799 -11.5293   1.9636  25.0894
 407 C_f :2px    0.0000  -0.0000  -0.0000  -0.0005  -0.0063  -0.0194   0.0193
 408 C_f :2py   -0.0000  -0.0000  -0.0000   0.0021   0.0111   0.0174  -0.0317
 409 C_f :2pz   -0.0126  -0.4414   0.3703   0.0000   0.0000  -0.0000  -0.0000
 413 C_f :2px   -0.0000   0.0000   0.0000  -0.1398  -0.0013  -0.0795   0.0807
 414 C_f :2py   -0.0000  -0.0000   0.0000   0.0718  -0.0327   0.0769   0.0779
 416 C_f :2px   -0.0000   0.0000  -0.0000  -0.4965   0.4537  -1.4515  -1.7887
 417 C_f :2py   -0.0000   0.0000   0.0000   1.2392  -0.2824   2.4348  -0.0861
 418 C_f :2pz    0.0050  -0.0166   0.0305   0.0000   0.0000  -0.0000   0.0000
 419 C_f :2px    0.0000  -0.0000  -0.0000   1.0452  -0.3617  -0.6602  10.0187
 420 C_f :2py    0.0000  -0.0000  -0.0000  -0.0510   2.3186   1.0448  -1.0226
 421 C_f :2pz    0.0195  -0.0048   0.0190   0.0000   0.0000  -0.0000  -0.0000
 430 C_f :3d1+   0.0010  -0.0101   0.0038  -0.0000   0.0000   0.0000  -0.0000
 432 C_f :3d2-   0.0000  -0.0000  -0.0000  -0.0046   0.1090   0.2478  -0.2902
 434 C_f :3d0   -0.0000   0.0000   0.0000  -0.0641   0.0199  -0.0080  -0.1329
 435 C_f :3d1+   0.0062  -0.0173   0.0055   0.0000   0.0000  -0.0000  -0.0000
 436 C_f :3d2+  -0.0000  -0.0000  -0.0000  -0.0271   0.0164   0.0157  -0.0258
 437 C_f :3d2-  -0.0000  -0.0000  -0.0000  -0.1711   0.1824   0.5614  -0.8245
 439 C_f :3d0   -0.0000   0.0000   0.0000  -0.1981   0.4127  -0.2780  -0.5318
 440 C_f :3d1+   0.0185  -0.0169   0.0104   0.0000   0.0000  -0.0000   0.0000
 441 C_f :3d2+   0.0000   0.0000   0.0000   0.3077   0.4541   0.4790  -1.0813
 449 C_f :4f3-   0.0000  -0.0000   0.0000   0.0120   0.0041   0.0236   0.0023
 456 C_f :4f3-   0.0000  -0.0000   0.0000   0.0575  -0.0445   0.1120   0.0073
 458 C_f :4f1-  -0.0000  -0.0000  -0.0000  -0.0336  -0.0021  -0.0365  -0.0105
 460 C_f :4f1+  -0.0000  -0.0000  -0.0000  -0.0087  -0.0363  -0.0179   0.0771
 462 C_f :4f3+   0.0000   0.0000   0.0000   0.0243  -0.1204   0.0526   0.1893
 482 N_a :1s     0.0000  -0.0000   0.0000   0.0940   0.0232  -0.0262  -0.0009
 483 N_a :1s     0.0000  -0.0000   0.0000   0.0164   0.0115   0.0069  -0.0056
 484 N_a :1s    -0.0000   0.0000   0.0000  -0.1081   0.0050  -0.2166   0.0361
 485 N_a :1s     0.0000   0.0000   0.0000  -1.1749  -1.1192  -0.6740   0.6335
 486 N_a :1s     0.0000   0.0000  -0.0000  -9.8860  -7.8570   1.7829   0.5454
 487 N_a :2px   -0.0000   0.0000  -0.0000   0.0505  -0.0325  -0.0181  -0.0360
 488 N_a :2py   -0.0000   0.0000   0.0000   0.0369   0.0436  -0.0003   0.0366
 489 N_a :2pz    0.0122  -0.3530  -0.3249   0.0000  -0.0000   0.0000   0.0000
 493 N_a :2px    0.0000  -0.0000   0.0000   0.0512  -0.0427   0.0001  -0.1279
 494 N_a :2py   -0.0000  -0.0000  -0.0000   0.0496   0.0824   0.0371   0.0960
 496 N_a :2px   -0.0000   0.0000  -0.0000  -0.2598  -0.5360  -0.2291  -0.6412
 497 N_a :2py   -0.0000   0.0000  -0.0000   0.0067   0.2999   0.3428   0.6150
 498 N_a :2pz    0.0018  -0.0243  -0.0393   0.0000  -0.0000  -0.0000  -0.0000
 499 N_a :2px   -0.0000  -0.0000  -0.0000   1.5511   1.2606  -0.9307  -0.6303
 500 N_a :2py    0.0000   0.0000   0.0000   2.3180   0.9504  -0.6767   1.2881
 501 N_a :2pz    0.0046  -0.0147  -0.0349   0.0000  -0.0000   0.0000   0.0000
 512 N_a :3d2-   0.0000  -0.0000   0.0000   0.0303   0.0182  -0.0154   0.0303
 514 N_a :3d0   -0.0000   0.0000  -0.0000   0.0549   0.0642  -0.0375  -0.0018
 516 N_a :3d2+  -0.0000   0.0000  -0.0000  -0.0415   0.0435   0.0342   0.0751
 517 N_a :3d2-   0.0000  -0.0000   0.0000   0.2320   0.1494   0.0636  -0.1107
 519 N_a :3d0   -0.0000   0.0000   0.0000   0.2271   0.2726  -0.2004   0.0596
 521 N_a :3d2+  -0.0000   0.0000  -0.0000  -0.1140   0.0176   0.1981  -0.1783
 536 N_a :4f3-   0.0000  -0.0000   0.0000   0.0218  -0.0067   0.0066  -0.0783
 538 N_a :4f1-  -0.0000  -0.0000  -0.0000   0.0068  -0.0118   0.0003  -0.0202
 540 N_a :4f1+   0.0000  -0.0000   0.0000   0.0080   0.0212   0.0388   0.0099
 542 N_a :4f3+   0.0000  -0.0000   0.0000  -0.0347  -0.0440  -0.0735   0.0148
 552 N_a :5g4-  -0.0000  -0.0000  -0.0000  -0.0002   0.0095   0.0029   0.0105
 564 N_b :1s     0.0000   0.0000  -0.0000   0.0219  -0.0212  -0.0084   0.0719
[...]

@ Singlet linear response function in a.u.

@ A operator, symmetry, frequency:   XDIPLEN    1 -0.019338
@ B operator, symmetry, frequency:   ZDIPLEN    1  0.019338

@ Value of linear response -<<A;B>>(omega):       0.000000000000

@ Singlet linear response function in a.u.

@ A operator, symmetry, frequency:   YDIPLEN    1 -0.019338
@ B operator, symmetry, frequency:   ZDIPLEN    1  0.019338

@ Value of linear response -<<A;B>>(omega):       0.000000000000

@ Singlet linear response function in a.u.

@ A operator, symmetry, frequency:   ZDIPLEN    1 -0.019338
@ B operator, symmetry, frequency:   ZDIPLEN    1  0.019338

@ Value of linear response -<<A;B>>(omega):      61.583222021952

@ Singlet linear response function in a.u.

@ A operator, symmetry, frequency:   XDIPLEN    1 -0.038675
@ B operator, symmetry, frequency:   ZDIPLEN    1  0.038675

@ Value of linear response -<<A;B>>(omega):       0.000000000000

@ Singlet linear response function in a.u.

@ A operator, symmetry, frequency:   YDIPLEN    1 -0.038675
@ B operator, symmetry, frequency:   ZDIPLEN    1  0.038675

@ Value of linear response -<<A;B>>(omega):      -0.000000000000

@ Singlet linear response function in a.u.

@ A operator, symmetry, frequency:   ZDIPLEN    1 -0.038675
@ B operator, symmetry, frequency:   ZDIPLEN    1  0.038675

@ Value of linear response -<<A;B>>(omega):      61.818701590328


  Results from quadratic response calculation
 --------------------------------------------

@ B-freq = 0.000000  C-freq = 0.000000     beta(X;X,X) =   1326.58431993
@ B-freq = 0.000000  C-freq = 0.000000     beta(Y;X,X) =   1622.12607958
@ B-freq = 0.000000  C-freq = 0.000000     beta(Z;X,X) =      0.00000000
@ B-freq = 0.019338  C-freq = 0.000000     beta(X;X,X) =   1384.73141494
@ B-freq = 0.019338  C-freq = 0.000000     beta(Y;X,X) =   1668.37830621
@ B-freq = 0.019338  C-freq = 0.000000     beta(Z;X,X) =      0.00000000
@ B-freq = 0.038675  C-freq = 0.000000     beta(X;X,X) =   1579.23193015
@ B-freq = 0.038675  C-freq = 0.000000     beta(Y;X,X) =   1820.58437435
@ B-freq = 0.038675  C-freq = 0.000000     beta(Z;X,X) =      0.00000000
@ B-freq = 0.000000  C-freq = 0.000000     beta(X;Y,X) = beta(Y,X,X)
@ B-freq = 0.000000  C-freq = 0.000000     beta(X;Y,X) =   1622.12612845
@ B-freq = 0.000000  C-freq = 0.000000     beta(Y;Y,X) =   1295.70813193
@ B-freq = 0.000000  C-freq = 0.000000     beta(Z;Y,X) =      0.00000000
@ B-freq = 0.019338  C-freq = 0.000000     beta(X;Y,X) =   1668.37835718
@ B-freq = 0.019338  C-freq = 0.000000     beta(Y;Y,X) =   1326.80628201
@ B-freq = 0.019338  C-freq = 0.000000     beta(Z;Y,X) =      0.00000000
@ B-freq = 0.038675  C-freq = 0.000000     beta(X;Y,X) =   1820.58443223
@ B-freq = 0.038675  C-freq = 0.000000     beta(Y;Y,X) =   1428.34651830
@ B-freq = 0.038675  C-freq = 0.000000     beta(Z;Y,X) =      0.00000000
@ B-freq = 0.000000  C-freq = 0.000000     beta(X;Z,X) = beta(Z,X,X)
@ B-freq = 0.000000  C-freq = 0.000000     beta(Y;Z,X) = beta(Z,Y,X)
@ B-freq = 0.000000  C-freq = 0.000000     beta(X;Z,X) =      0.00000000
@ B-freq = 0.000000  C-freq = 0.000000     beta(Y;Z,X) =      0.00000000
@ B-freq = 0.000000  C-freq = 0.000000     beta(Z;Z,X) =    -29.59337292
@ B-freq = 0.019338  C-freq = 0.000000     beta(X;Z,X) =      0.00000000
@ B-freq = 0.019338  C-freq = 0.000000     beta(Y;Z,X) =      0.00000000
@ B-freq = 0.019338  C-freq = 0.000000     beta(Z;Z,X) =    -29.95978840
@ B-freq = 0.038675  C-freq = 0.000000     beta(X;Z,X) =      0.00000000
@ B-freq = 0.038675  C-freq = 0.000000     beta(Y;Z,X) =      0.00000000
@ B-freq = 0.038675  C-freq = 0.000000     beta(Z;Z,X) =    -31.11037375
@ B-freq = 0.000000  C-freq = 0.019338     beta(X;X,X) = beta(X,X,X)
@ B-freq = 0.000000  C-freq = 0.019338     beta(Y;X,X) = beta(Y,X,X)
@ B-freq = 0.000000  C-freq = 0.019338     beta(Z;X,X) = beta(Z,X,X)
@ B-freq = 0.019338  C-freq = 0.019338     beta(X;X,X) =   1510.84952155
@ B-freq = 0.019338  C-freq = 0.019338     beta(Y;X,X) =   1753.24626825
@ B-freq = 0.019338  C-freq = 0.019338     beta(Z;X,X) =      0.00000000
@ B-freq = 0.038675  C-freq = 0.019338     beta(X;X,X) =   1809.54737579
@ B-freq = 0.038675  C-freq = 0.019338     beta(Y;X,X) =   1963.23394807
@ B-freq = 0.038675  C-freq = 0.019338     beta(Z;X,X) =      0.00000000
@ B-freq = 0.000000  C-freq = 0.019338     beta(X;Y,X) =   1681.55433426
@ B-freq = 0.000000  C-freq = 0.019338     beta(Y;Y,X) =   1333.69266114
@ B-freq = 0.000000  C-freq = 0.019338     beta(Z;Y,X) =      0.00000000
@ B-freq = 0.019338  C-freq = 0.019338     beta(X;Y,X) =   1795.82588416
@ B-freq = 0.019338  C-freq = 0.019338     beta(Y;Y,X) =   1400.39678592
@ B-freq = 0.019338  C-freq = 0.019338     beta(Z;Y,X) =      0.00000000
@ B-freq = 0.038675  C-freq = 0.019338     beta(X;Y,X) =   2046.18058417
@ B-freq = 0.038675  C-freq = 0.019338     beta(Y;Y,X) =   1552.78852541
@ B-freq = 0.038675  C-freq = 0.019338     beta(Z;Y,X) =      0.00000000
@ B-freq = 0.000000  C-freq = 0.019338     beta(X;Z,X) =      0.00000000
@ B-freq = 0.000000  C-freq = 0.019338     beta(Y;Z,X) =      0.00000000
@ B-freq = 0.000000  C-freq = 0.019338     beta(Z;Z,X) =    -30.12172941
@ B-freq = 0.019338  C-freq = 0.019338     beta(X;Z,X) =      0.00000000
@ B-freq = 0.019338  C-freq = 0.019338     beta(Y;Z,X) =      0.00000000
@ B-freq = 0.019338  C-freq = 0.019338     beta(Z;Z,X) =    -30.88266681
@ B-freq = 0.038675  C-freq = 0.019338     beta(X;Z,X) =      0.00000000
@ B-freq = 0.038675  C-freq = 0.019338     beta(Y;Z,X) =      0.00000000
@ B-freq = 0.038675  C-freq = 0.019338     beta(Z;Z,X) =    -32.51489657
@ B-freq = 0.000000  C-freq = 0.038675     beta(X;X,X) = beta(X,X,X)
@ B-freq = 0.000000  C-freq = 0.038675     beta(Y;X,X) = beta(Y,X,X)
@ B-freq = 0.000000  C-freq = 0.038675     beta(Z;X,X) = beta(Z,X,X)
@ B-freq = 0.019338  C-freq = 0.038675     beta(X;X,X) = beta(X,X,X)
@ B-freq = 0.019338  C-freq = 0.038675     beta(Y;X,X) = beta(Y,X,X)
@ B-freq = 0.019338  C-freq = 0.038675     beta(Z;X,X) = beta(Z,X,X)
@ B-freq = 0.038675  C-freq = 0.038675     beta(X;X,X) =   2299.63525244
@ B-freq = 0.038675  C-freq = 0.038675     beta(Y;X,X) =   2276.80156473
@ B-freq = 0.038675  C-freq = 0.038675     beta(Z;X,X) =      0.00000000
@ B-freq = 0.000000  C-freq = 0.038675     beta(X;Y,X) =   1879.21647264
@ B-freq = 0.000000  C-freq = 0.038675     beta(Y;Y,X) =   1458.89178133
@ B-freq = 0.000000  C-freq = 0.038675     beta(Z;Y,X) =      0.00000000
@ B-freq = 0.019338  C-freq = 0.038675     beta(X;Y,X) =   2095.17304038
@ B-freq = 0.019338  C-freq = 0.038675     beta(Y;Y,X) =   1578.17772741
@ B-freq = 0.019338  C-freq = 0.038675     beta(Z;Y,X) =      0.00000000
@ B-freq = 0.038675  C-freq = 0.038675     beta(X;Y,X) =   2521.24074678
@ B-freq = 0.038675  C-freq = 0.038675     beta(Y;Y,X) =   1820.41484041
@ B-freq = 0.038675  C-freq = 0.038675     beta(Z;Y,X) =      0.00000000
@ B-freq = 0.000000  C-freq = 0.038675     beta(X;Z,X) =      0.00000000
@ B-freq = 0.000000  C-freq = 0.038675     beta(Y;Z,X) =      0.00000000
@ B-freq = 0.000000  C-freq = 0.038675     beta(Z;Z,X) =    -31.81697532
@ B-freq = 0.019338  C-freq = 0.038675     beta(X;Z,X) =      0.00000000
@ B-freq = 0.019338  C-freq = 0.038675     beta(Y;Z,X) =      0.00000000
@ B-freq = 0.019338  C-freq = 0.038675     beta(Z;Z,X) =    -33.06978345
@ B-freq = 0.038675  C-freq = 0.038675     beta(X;Z,X) =      0.00000000
@ B-freq = 0.038675  C-freq = 0.038675     beta(Y;Z,X) =      0.00000000
@ B-freq = 0.038675  C-freq = 0.038675     beta(Z;Z,X) =    -35.37265524
@ B-freq = 0.000000  C-freq = 0.000000     beta(X;X,Y) = beta(Y,X,X)
@ B-freq = 0.000000  C-freq = 0.000000     beta(Y;X,Y) = beta(Y,Y,X)
@ B-freq = 0.000000  C-freq = 0.000000     beta(Z;X,Y) = beta(Z,Y,X)
@ B-freq = 0.019338  C-freq = 0.000000     beta(X;X,Y) = beta(X,Y,X)
@ B-freq = 0.019338  C-freq = 0.000000     beta(Y;X,Y) = beta(Y,Y,X)
@ B-freq = 0.019338  C-freq = 0.000000     beta(Z;X,Y) = beta(Z,Y,X)
@ B-freq = 0.038675  C-freq = 0.000000     beta(X;X,Y) = beta(X,Y,X)
@ B-freq = 0.038675  C-freq = 0.000000     beta(Y;X,Y) = beta(Y,Y,X)
@ B-freq = 0.038675  C-freq = 0.000000     beta(Z;X,Y) = beta(Z,Y,X)
@ B-freq = 0.000000  C-freq = 0.000000     beta(X;Y,Y) = beta(Y,Y,X)
@ B-freq = 0.000000  C-freq = 0.000000     beta(X;Y,Y) =   1295.70824724
@ B-freq = 0.000000  C-freq = 0.000000     beta(Y;Y,Y) =    822.25433029
@ B-freq = 0.000000  C-freq = 0.000000     beta(Z;Y,Y) =      0.00000000
@ B-freq = 0.019338  C-freq = 0.000000     beta(X;Y,Y) =   1333.69278052
@ B-freq = 0.019338  C-freq = 0.000000     beta(Y;Y,Y) =    844.70140831
@ B-freq = 0.019338  C-freq = 0.000000     beta(Z;Y,Y) =      0.00000000
@ B-freq = 0.038675  C-freq = 0.000000     beta(X;Y,Y) =   1458.89191391
@ B-freq = 0.038675  C-freq = 0.000000     beta(Y;Y,Y) =    918.32661521
@ B-freq = 0.038675  C-freq = 0.000000     beta(Z;Y,Y) =      0.00000000
@ B-freq = 0.000000  C-freq = 0.000000     beta(X;Z,Y) = beta(Z,Y,X)
@ B-freq = 0.000000  C-freq = 0.000000     beta(Y;Z,Y) = beta(Z,Y,Y)
@ B-freq = 0.000000  C-freq = 0.000000     beta(X;Z,Y) =      0.00000000
@ B-freq = 0.000000  C-freq = 0.000000     beta(Y;Z,Y) =      0.00000000
@ B-freq = 0.000000  C-freq = 0.000000     beta(Z;Z,Y) =    -23.13312573
@ B-freq = 0.019338  C-freq = 0.000000     beta(X;Z,Y) =      0.00000000
@ B-freq = 0.019338  C-freq = 0.000000     beta(Y;Z,Y) =      0.00000000
@ B-freq = 0.019338  C-freq = 0.000000     beta(Z;Z,Y) =    -23.35848351
@ B-freq = 0.038675  C-freq = 0.000000     beta(X;Z,Y) =      0.00000000
@ B-freq = 0.038675  C-freq = 0.000000     beta(Y;Z,Y) =      0.00000000
@ B-freq = 0.038675  C-freq = 0.000000     beta(Z;Z,Y) =    -24.06201302
@ B-freq = 0.000000  C-freq = 0.019338     beta(X;X,Y) = beta(X,Y,X)
@ B-freq = 0.000000  C-freq = 0.019338     beta(Y;X,Y) = beta(Y,Y,X)
@ B-freq = 0.000000  C-freq = 0.019338     beta(Z;X,Y) = beta(Z,Y,X)
@ B-freq = 0.019338  C-freq = 0.019338     beta(X;X,Y) = beta(X,Y,X)
@ B-freq = 0.019338  C-freq = 0.019338     beta(Y;X,Y) = beta(Y,Y,X)
@ B-freq = 0.019338  C-freq = 0.019338     beta(Z;X,Y) = beta(Z,Y,X)
@ B-freq = 0.038675  C-freq = 0.019338     beta(X;X,Y) = beta(X,Y,X)
@ B-freq = 0.038675  C-freq = 0.019338     beta(Y;X,Y) = beta(Y,Y,X)
@ B-freq = 0.038675  C-freq = 0.019338     beta(Z;X,Y) = beta(Z,Y,X)
@ B-freq = 0.000000  C-freq = 0.019338     beta(X;Y,Y) = beta(X,Y,Y)
@ B-freq = 0.000000  C-freq = 0.019338     beta(Y;Y,Y) = beta(Y,Y,Y)
@ B-freq = 0.000000  C-freq = 0.019338     beta(Z;Y,Y) = beta(Z,Y,Y)
@ B-freq = 0.019338  C-freq = 0.019338     beta(X;Y,Y) =   1422.64353156
@ B-freq = 0.019338  C-freq = 0.019338     beta(Y;Y,Y) =    892.68721180
@ B-freq = 0.019338  C-freq = 0.019338     beta(Z;Y,Y) =      0.00000000
@ B-freq = 0.038675  C-freq = 0.019338     beta(X;Y,Y) =   1621.48673929
@ B-freq = 0.038675  C-freq = 0.019338     beta(Y;Y,Y) =   1003.05333192
@ B-freq = 0.038675  C-freq = 0.019338     beta(Z;Y,Y) =      0.00000000
@ B-freq = 0.000000  C-freq = 0.019338     beta(X;Z,Y) =      0.00000000
@ B-freq = 0.000000  C-freq = 0.019338     beta(Y;Z,Y) =      0.00000000
@ B-freq = 0.000000  C-freq = 0.019338     beta(Z;Z,Y) =    -23.43959714
@ B-freq = 0.019338  C-freq = 0.019338     beta(X;Z,Y) =      0.00000000
@ B-freq = 0.019338  C-freq = 0.019338     beta(Y;Z,Y) =      0.00000000
@ B-freq = 0.019338  C-freq = 0.019338     beta(Z;Z,Y) =    -23.90515645
@ B-freq = 0.038675  C-freq = 0.019338     beta(X;Z,Y) =      0.00000000
@ B-freq = 0.038675  C-freq = 0.019338     beta(Y;Z,Y) =      0.00000000
@ B-freq = 0.038675  C-freq = 0.019338     beta(Z;Z,Y) =    -24.89508422
@ B-freq = 0.000000  C-freq = 0.038675     beta(X;X,Y) = beta(X,Y,X)
@ B-freq = 0.000000  C-freq = 0.038675     beta(Y;X,Y) = beta(Y,Y,X)
@ B-freq = 0.000000  C-freq = 0.038675     beta(Z;X,Y) = beta(Z,Y,X)
@ B-freq = 0.019338  C-freq = 0.038675     beta(X;X,Y) = beta(X,Y,X)
@ B-freq = 0.019338  C-freq = 0.038675     beta(Y;X,Y) = beta(Y,Y,X)
@ B-freq = 0.019338  C-freq = 0.038675     beta(Z;X,Y) = beta(Z,Y,X)
@ B-freq = 0.038675  C-freq = 0.038675     beta(X;X,Y) = beta(X,Y,X)
@ B-freq = 0.038675  C-freq = 0.038675     beta(Y;X,Y) = beta(Y,Y,X)
@ B-freq = 0.038675  C-freq = 0.038675     beta(Z;X,Y) = beta(Z,Y,X)
@ B-freq = 0.000000  C-freq = 0.038675     beta(X;Y,Y) = beta(X,Y,Y)
@ B-freq = 0.000000  C-freq = 0.038675     beta(Y;Y,Y) = beta(Y,Y,Y)
@ B-freq = 0.000000  C-freq = 0.038675     beta(Z;Y,Y) = beta(Z,Y,Y)
@ B-freq = 0.019338  C-freq = 0.038675     beta(X;Y,Y) = beta(X,Y,Y)
@ B-freq = 0.019338  C-freq = 0.038675     beta(Y;Y,Y) = beta(Y,Y,Y)
@ B-freq = 0.019338  C-freq = 0.038675     beta(Z;Y,Y) = beta(Z,Y,Y)
@ B-freq = 0.038675  C-freq = 0.038675     beta(X;Y,Y) =   1947.57562362
@ B-freq = 0.038675  C-freq = 0.038675     beta(Y;Y,Y) =   1176.57784635
@ B-freq = 0.038675  C-freq = 0.038675     beta(Z;Y,Y) =      0.00000000
@ B-freq = 0.000000  C-freq = 0.038675     beta(X;Z,Y) =      0.00000000
@ B-freq = 0.000000  C-freq = 0.038675     beta(Y;Z,Y) =      0.00000000
@ B-freq = 0.000000  C-freq = 0.038675     beta(Z;Z,Y) =    -24.41417849
@ B-freq = 0.019338  C-freq = 0.038675     beta(X;Z,Y) =      0.00000000
@ B-freq = 0.019338  C-freq = 0.038675     beta(Y;Z,Y) =      0.00000000
@ B-freq = 0.019338  C-freq = 0.038675     beta(Z;Z,Y) =    -25.17078623
@ B-freq = 0.038675  C-freq = 0.038675     beta(X;Z,Y) =      0.00000000
@ B-freq = 0.038675  C-freq = 0.038675     beta(Y;Z,Y) =      0.00000000
@ B-freq = 0.038675  C-freq = 0.038675     beta(Z;Z,Y) =    -26.54538685
@ B-freq = 0.000000  C-freq = 0.000000     beta(X;X,Z) = beta(Z,X,X)
@ B-freq = 0.000000  C-freq = 0.000000     beta(Y;X,Z) = beta(Z,Y,X)
@ B-freq = 0.000000  C-freq = 0.000000     beta(Z;X,Z) = beta(Z,Z,X)
@ B-freq = 0.019338  C-freq = 0.000000     beta(X;X,Z) = beta(X,Z,X)
@ B-freq = 0.019338  C-freq = 0.000000     beta(Y;X,Z) = beta(Y,Z,X)
@ B-freq = 0.019338  C-freq = 0.000000     beta(Z;X,Z) = beta(Z,Z,X)
@ B-freq = 0.038675  C-freq = 0.000000     beta(X;X,Z) = beta(X,Z,X)
@ B-freq = 0.038675  C-freq = 0.000000     beta(Y;X,Z) = beta(Y,Z,X)
@ B-freq = 0.038675  C-freq = 0.000000     beta(Z;X,Z) = beta(Z,Z,X)
@ B-freq = 0.000000  C-freq = 0.000000     beta(X;Y,Z) = beta(Z,Y,X)
@ B-freq = 0.000000  C-freq = 0.000000     beta(Y;Y,Z) = beta(Z,Y,Y)
@ B-freq = 0.000000  C-freq = 0.000000     beta(Z;Y,Z) = beta(Z,Z,Y)
@ B-freq = 0.019338  C-freq = 0.000000     beta(X;Y,Z) = beta(X,Z,Y)
@ B-freq = 0.019338  C-freq = 0.000000     beta(Y;Y,Z) = beta(Y,Z,Y)
@ B-freq = 0.019338  C-freq = 0.000000     beta(Z;Y,Z) = beta(Z,Z,Y)
@ B-freq = 0.038675  C-freq = 0.000000     beta(X;Y,Z) = beta(X,Z,Y)
@ B-freq = 0.038675  C-freq = 0.000000     beta(Y;Y,Z) = beta(Y,Z,Y)
@ B-freq = 0.038675  C-freq = 0.000000     beta(Z;Y,Z) = beta(Z,Z,Y)
@ B-freq = 0.000000  C-freq = 0.000000     beta(X;Z,Z) = beta(Z,Z,X)
@ B-freq = 0.000000  C-freq = 0.000000     beta(Y;Z,Z) = beta(Z,Z,Y)
@ B-freq = 0.000000  C-freq = 0.000000     beta(X;Z,Z) =    -29.59333005
@ B-freq = 0.000000  C-freq = 0.000000     beta(Y;Z,Z) =    -23.13311066
@ B-freq = 0.000000  C-freq = 0.000000     beta(Z;Z,Z) =     -0.00000000
@ B-freq = 0.019338  C-freq = 0.000000     beta(X;Z,Z) =    -30.12168548
@ B-freq = 0.019338  C-freq = 0.000000     beta(Y;Z,Z) =    -23.43958164
@ B-freq = 0.019338  C-freq = 0.000000     beta(Z;Z,Z) =     -0.00000000
@ B-freq = 0.038675  C-freq = 0.000000     beta(X;Z,Z) =    -31.81692795
@ B-freq = 0.038675  C-freq = 0.000000     beta(Y;Z,Z) =    -24.41416158
@ B-freq = 0.038675  C-freq = 0.000000     beta(Z;Z,Z) =     -0.00000000
@ B-freq = 0.000000  C-freq = 0.019338     beta(X;X,Z) = beta(X,Z,X)
@ B-freq = 0.000000  C-freq = 0.019338     beta(Y;X,Z) = beta(Y,Z,X)
@ B-freq = 0.000000  C-freq = 0.019338     beta(Z;X,Z) = beta(Z,Z,X)
@ B-freq = 0.019338  C-freq = 0.019338     beta(X;X,Z) = beta(X,Z,X)
@ B-freq = 0.019338  C-freq = 0.019338     beta(Y;X,Z) = beta(Y,Z,X)
@ B-freq = 0.019338  C-freq = 0.019338     beta(Z;X,Z) = beta(Z,Z,X)
@ B-freq = 0.038675  C-freq = 0.019338     beta(X;X,Z) = beta(X,Z,X)
@ B-freq = 0.038675  C-freq = 0.019338     beta(Y;X,Z) = beta(Y,Z,X)
@ B-freq = 0.038675  C-freq = 0.019338     beta(Z;X,Z) = beta(Z,Z,X)
@ B-freq = 0.000000  C-freq = 0.019338     beta(X;Y,Z) = beta(X,Z,Y)
@ B-freq = 0.000000  C-freq = 0.019338     beta(Y;Y,Z) = beta(Y,Z,Y)
@ B-freq = 0.000000  C-freq = 0.019338     beta(Z;Y,Z) = beta(Z,Z,Y)
@ B-freq = 0.019338  C-freq = 0.019338     beta(X;Y,Z) = beta(X,Z,Y)
@ B-freq = 0.019338  C-freq = 0.019338     beta(Y;Y,Z) = beta(Y,Z,Y)
@ B-freq = 0.019338  C-freq = 0.019338     beta(Z;Y,Z) = beta(Z,Z,Y)
@ B-freq = 0.038675  C-freq = 0.019338     beta(X;Y,Z) = beta(X,Z,Y)
@ B-freq = 0.038675  C-freq = 0.019338     beta(Y;Y,Z) = beta(Y,Z,Y)
@ B-freq = 0.038675  C-freq = 0.019338     beta(Z;Y,Z) = beta(Z,Z,Y)
@ B-freq = 0.000000  C-freq = 0.019338     beta(X;Z,Z) = beta(X,Z,Z)
@ B-freq = 0.000000  C-freq = 0.019338     beta(Y;Z,Z) = beta(Y,Z,Z)
@ B-freq = 0.000000  C-freq = 0.019338     beta(Z;Z,Z) = beta(Z,Z,Z)
@ B-freq = 0.019338  C-freq = 0.019338     beta(X;Z,Z) =    -31.41864174
@ B-freq = 0.019338  C-freq = 0.019338     beta(Y;Z,Z) =    -24.17220665
@ B-freq = 0.019338  C-freq = 0.019338     beta(Z;Z,Z) =     -0.00000000
@ B-freq = 0.038675  C-freq = 0.019338     beta(X;Z,Z) =    -34.16540171
@ B-freq = 0.038675  C-freq = 0.019338     beta(Y;Z,Z) =    -25.71141371
@ B-freq = 0.038675  C-freq = 0.019338     beta(Z;Z,Z) =     -0.00000000
@ B-freq = 0.000000  C-freq = 0.038675     beta(X;X,Z) = beta(X,Z,X)
@ B-freq = 0.000000  C-freq = 0.038675     beta(Y;X,Z) = beta(Y,Z,X)
@ B-freq = 0.000000  C-freq = 0.038675     beta(Z;X,Z) = beta(Z,Z,X)
@ B-freq = 0.019338  C-freq = 0.038675     beta(X;X,Z) = beta(X,Z,X)
@ B-freq = 0.019338  C-freq = 0.038675     beta(Y;X,Z) = beta(Y,Z,X)
@ B-freq = 0.019338  C-freq = 0.038675     beta(Z;X,Z) = beta(Z,Z,X)
@ B-freq = 0.038675  C-freq = 0.038675     beta(X;X,Z) = beta(X,Z,X)
@ B-freq = 0.038675  C-freq = 0.038675     beta(Y;X,Z) = beta(Y,Z,X)
@ B-freq = 0.038675  C-freq = 0.038675     beta(Z;X,Z) = beta(Z,Z,X)
@ B-freq = 0.000000  C-freq = 0.038675     beta(X;Y,Z) = beta(X,Z,Y)
@ B-freq = 0.000000  C-freq = 0.038675     beta(Y;Y,Z) = beta(Y,Z,Y)
@ B-freq = 0.000000  C-freq = 0.038675     beta(Z;Y,Z) = beta(Z,Z,Y)
@ B-freq = 0.019338  C-freq = 0.038675     beta(X;Y,Z) = beta(X,Z,Y)
@ B-freq = 0.019338  C-freq = 0.038675     beta(Y;Y,Z) = beta(Y,Z,Y)
@ B-freq = 0.019338  C-freq = 0.038675     beta(Z;Y,Z) = beta(Z,Z,Y)
@ B-freq = 0.038675  C-freq = 0.038675     beta(X;Y,Z) = beta(X,Z,Y)
@ B-freq = 0.038675  C-freq = 0.038675     beta(Y;Y,Z) = beta(Y,Z,Y)
@ B-freq = 0.038675  C-freq = 0.038675     beta(Z;Y,Z) = beta(Z,Z,Y)
@ B-freq = 0.000000  C-freq = 0.038675     beta(X;Z,Z) = beta(X,Z,Z)
@ B-freq = 0.000000  C-freq = 0.038675     beta(Y;Z,Z) = beta(Y,Z,Z)
@ B-freq = 0.000000  C-freq = 0.038675     beta(Z;Z,Z) = beta(Z,Z,Z)
@ B-freq = 0.019338  C-freq = 0.038675     beta(X;Z,Z) = beta(X,Z,Z)
@ B-freq = 0.019338  C-freq = 0.038675     beta(Y;Z,Z) = beta(Y,Z,Z)
@ B-freq = 0.019338  C-freq = 0.038675     beta(Z;Z,Z) = beta(Z,Z,Z)
@ B-freq = 0.038675  C-freq = 0.038675     beta(X;Z,Z) =    -38.62849033
@ B-freq = 0.038675  C-freq = 0.038675     beta(Y;Z,Z) =    -28.13769751
@ B-freq = 0.038675  C-freq = 0.038675     beta(Z;Z,Z) =     -0.00000000

  Total CPU  time used in RESPONSE:   3 hours 28 minutes  7 seconds
  Total wall time used in RESPONSE:   3 hours 29 minutes 12 seconds


                   .-------------------------------------------.
                   | End of Dynamic Property Section (RESPONS) |
                   `-------------------------------------------'

  Total CPU  time used in DALTON:   4 hours  0 minutes  7 seconds
  Total wall time used in DALTON:   4 hours  1 minute  23 seconds

 
     Date and time (Linux)  : Tue May  6 09:40:40 2025
     Host name              : xm048                                   
