

     ************************************************************************
     *************** Dalton - An Electronic Structure Program ***************
     ************************************************************************

    This is output from DALTON release Dalton2020.0 (2020)
         ( Web site: http://daltonprogram.org )

   ----------------------------------------------------------------------------

    NOTE:
     
    Dalton is an experimental code for the evaluation of molecular
    properties using (MC)SCF, DFT, CI, and CC wave functions.
    The authors accept no responsibility for the performance of
    the code or for the correctness of the results.
     
    The code (in whole or part) is provided under a licence and
    is not to be reproduced for further distribution without
    the written permission of the authors or their representatives.
     
    See the home page "http://daltonprogram.org" for further information.
     
    If results obtained with this code are published,
    the appropriate citations would be both of:
     
       K. Aidas, C. Angeli, K. L. Bak, V. Bakken, R. Bast,
       L. Boman, O. Christiansen, R. Cimiraglia, S. Coriani,
       P. Dahle, E. K. Dalskov, U. Ekstroem,
       T. Enevoldsen, J. J. Eriksen, P. Ettenhuber, B. Fernandez,
       L. Ferrighi, H. Fliegl, L. Frediani, K. Hald, A. Halkier,
       C. Haettig, H. Heiberg, T. Helgaker, A. C. Hennum,
       H. Hettema, E. Hjertenaes, S. Hoest, I.-M. Hoeyvik,
       M. F. Iozzi, B. Jansik, H. J. Aa. Jensen, D. Jonsson,
       P. Joergensen, J. Kauczor, S. Kirpekar,
       T. Kjaergaard, W. Klopper, S. Knecht, R. Kobayashi, H. Koch,
       J. Kongsted, A. Krapp, K. Kristensen, A. Ligabue,
       O. B. Lutnaes, J. I. Melo, K. V. Mikkelsen, R. H. Myhre,
       C. Neiss, C. B. Nielsen, P. Norman, J. Olsen,
       J. M. H. Olsen, A. Osted, M. J. Packer, F. Pawlowski,
       T. B. Pedersen, P. F. Provasi, S. Reine, Z. Rinkevicius,
       T. A. Ruden, K. Ruud, V. Rybkin, P. Salek, C. C. M. Samson,
       A. Sanchez de Meras, T. Saue, S. P. A. Sauer,
       B. Schimmelpfennig, K. Sneskov, A. H. Steindal,
       K. O. Sylvester-Hvid, P. R. Taylor, A. M. Teale,
       E. I. Tellgren, D. P. Tew, A. J. Thorvaldsen, L. Thoegersen,
       O. Vahtras, M. A. Watson, D. J. D. Wilson, M. Ziolkowski
       and H. Agren,
       "The Dalton quantum chemistry program system",
       WIREs Comput. Mol. Sci. 2014, 4:269–284 (doi: 10.1002/wcms.1172)
     
    and
     
       Dalton, a molecular electronic structure program,
       Release Dalton2020.0 (2020), see http://daltonprogram.org
   ----------------------------------------------------------------------------

    Authors in alphabetical order (Major contribution(s) in parenthesis):

  Kestutis Aidas,           Vilnius University,           Lithuania   (QM/MM)
  Celestino Angeli,         University of Ferrara,        Italy       (NEVPT2)
  Keld L. Bak,              UNI-C,                        Denmark     (AOSOPPA, non-adiabatic coupling, magnetic properties)
  Vebjoern Bakken,          University of Oslo,           Norway      (DALTON; geometry optimizer, symmetry detection)
  Radovan Bast,             UiT The Arctic U. of Norway,  Norway      (DALTON installation and execution frameworks)
  Pablo Baudin,             University of Valencia,       Spain       (Cholesky excitation energies)
  Linus Boman,              NTNU,                         Norway      (Cholesky decomposition and subsystems)
  Bruno N. Cabral Tenorio,  Technical Univ. of Denmark,   Denmark     (Lanczos-based CC methods)
  Ove Christiansen,         Aarhus University,            Denmark     (CC module)
  Renzo Cimiraglia,         University of Ferrara,        Italy       (NEVPT2)
  Sonia Coriani,            Technical Univ. of Denmark,   Denmark     (CC and RESPONS modules)
  Janusz Cukras,            University of Warsaw,         Poland      (MChD in RESPONS)
  Paal Dahle,               University of Oslo,           Norway      (Parallelization)
  Erik K. Dalskov,          UNI-C,                        Denmark     (SOPPA)
  Thomas Enevoldsen,        Univ. of Southern Denmark,    Denmark     (SOPPA)
  Janus J. Eriksen,         Aarhus University,            Denmark     (Polarizable embedding, TDA)
  Rasmus Faber,             Technical Univ. of Denmark,   Denmark     (Vib.avg. NMR w. SOPPA, parallel AO-SOPPA, CVS-CC and EOMCC)
  Tobias Fahleson,          KTH Stockholm,                Sweden      (Damped cubic response)
  Berta Fernandez,          U. of Santiago de Compostela, Spain       (Doublet spin, ESR in RESPONS)
  Lara Ferrighi,            Aarhus University,            Denmark     (PCM Cubic response)
  Heike Fliegl,             University of Oslo,           Norway      (CCSD(R12))
  Luca Frediani,            UiT The Arctic U. of Norway,  Norway      (PCM)
  Emmanuel Fromager,        Univ. Strasbourg,             France      (MC-srDFT)
  Bin Gao,                  UiT The Arctic U. of Norway,  Norway      (Gen1Int library)
  Andre S. P. Gomes,        CNRS/Universite de Lille,     France      (Frozen density embedding)
  Christof Haettig,         Ruhr-University Bochum,       Germany     (CC module)
  Kasper Hald,              Aarhus University,            Denmark     (CC module)
  Asger Halkier,            Aarhus University,            Denmark     (CC module)
  Frederik Beyer Hansen,    University of Copenhagen,     Denmark     (Parallel AO-SOPPA)
  Erik D. Hedegaard,        Univ. of Southern Denmark,    Denmark     (Polarizable embedding, QM/MM, and MC-srDFT)
  Hanne Heiberg,            University of Oslo,           Norway      (Geometry analysis, selected one-electron integrals)
  Trygve Helgaker,          University of Oslo,           Norway      (DALTON; ABACUS, ERI, DFT modules, London, and much more)
  Alf Christian Hennum,     University of Oslo,           Norway      (Parity violation)
  Hinne Hettema,            University of Auckland,       New Zealand (Quadratic response in RESPONS; SIRIUS supersymmetry)
  Eirik Hjertenaes,         NTNU,                         Norway      (Cholesky decomposition)
  Pi A. B. Haase,           University of Copenhagen,     Denmark     (Triplet AO-SOPPA)
  Maria Francesca Iozzi,    University of Oslo,           Norway      (RPA)
  Christoph Jacob           TU Braunschweig               Germany     (Frozen density embedding)
  Brano Jansik              Technical Univ. of Ostrava    Czech Rep.  (DFT cubic response)
  Hans Joergen Aa. Jensen,  Univ. of Southern Denmark,    Denmark     (DALTON; SIRIUS, RESPONS, ABACUS, MC-srDFT, and much more)
  Dan Jonsson,              UiT The Arctic U. of Norway,  Norway      (Cubic response in RESPONS module)
  Poul Joergensen,          Aarhus University,            Denmark     (RESPONS, ABACUS, and CC modules)
  Maciej Kaminski,          University of Warsaw,         Poland      (CPPh in RESPONS)
  Joanna Kauczor,           Linkoeping University,        Sweden      (Complex polarization propagator (CPP) module)
  Sheela Kirpekar,          Univ. of Southern Denmark,    Denmark     (Mass-velocity & Darwin integrals)
  Erik Kjellgren,           Univ. of Southern Denmark,    Denmark     (MC-srDFT)
  Wim Klopper,              KIT Karlsruhe,                Germany     (R12 code in CC, SIRIUS, and ABACUS modules)
  Stefan Knecht,            ETH Zurich,                   Switzerland (Parallel CI and MCSCF, MC-srDFT)
  Rika Kobayashi,           Australian National Univ.,    Australia   (DIIS in CC, London in MCSCF)
  Henrik Koch,              NTNU,                         Norway      (CC module, Cholesky decomposition)
  Jacob Kongsted,           Univ. of Southern Denmark,    Denmark     (Polarizable embedding, polarizable density embedding, QM/MM)
  Andrea Ligabue,           University of Modena,         Italy       (CTOCD, AOSOPPA)
  Nanna H. List             Univ. of Southern Denmark,    Denmark     (Polarizable embedding)
  Ola B. Lutnaes,           University of Oslo,           Norway      (DFT Hessian)
  Juan I. Melo,             University of Buenos Aires,   Argentina   (LRESC, Relativistic Effects on NMR Shieldings)
  Kurt V. Mikkelsen,        University of Copenhagen,     Denmark     (MC-SCRF and QM/MM)
  Rolf H. Myhre,            NTNU,                         Norway      (Subsystems and CC3)
  Christian Neiss,          Univ. Erlangen-Nuernberg,     Germany     (CCSD(R12))
  Christian B. Nielsen,     University of Copenhagen,     Denmark     (QM/MM)
  Patrick Norman,           KTH Stockholm,                Sweden      (Cubic response and complex frequency response in RESPONS)
  Jeppe Olsen,              Aarhus University,            Denmark     (SIRIUS CI/density modules)
  Jogvan Magnus H. Olsen,   Aarhus University,            Denmark     (Polarizable embedding and polarizable density embedding)
  Anders Osted,             Copenhagen University,        Denmark     (QM/MM)
  Martin J. Packer,         University of Sheffield,      UK          (SOPPA)
  Filip Pawlowski,          Kazimierz Wielki University,  Poland      (CC3)
  Morten N. Pedersen,       Univ. of Southern Denmark,    Denmark     (Polarizable embedding)
  Thomas B. Pedersen,       University of Oslo,           Norway      (Cholesky decomposition)
  Patricio F. Provasi,      University of Northeastern,   Argentina   (Analysis of coupling constants in localized orbitals)
  Peter Reinholdt,          Univ. of Southern Denmark,    Denmark     (Polarizable embedding and polarizable density embedding)
  Zilvinas Rinkevicius,     KTH Stockholm,                Sweden      (open-shell DFT, ESR)
  Elias Rudberg,            KTH Stockholm,                Sweden      (DFT grid and basis info)
  Torgeir A. Ruden,         University of Oslo,           Norway      (Numerical derivatives in ABACUS)
  Kenneth Ruud,             UiT The Arctic U. of Norway,  Norway      (DALTON; ABACUS magnetic properties and much more)
  Pawel Salek,              KTH Stockholm,                Sweden      (DALTON; DFT code)
  Claire C. M. Samson       University of Karlsruhe       Germany     (Boys localization, r12 integrals in ERI)
  Alfredo Sanchez de Meras, University of Valencia,       Spain       (CC module, Cholesky decomposition)
  Trond Saue,               Paul Sabatier University,     France      (direct Fock matrix construction)
  Stephan P. A. Sauer,      University of Copenhagen,     Denmark     (SOPPA(CCSD), SOPPA prop., AOSOPPA, vibrational g-factors)
  Bernd Schimmelpfennig,    Forschungszentrum Karlsruhe,  Germany     (AMFI module)
  Anna K. Schnack-Petersen, University of Copenhagen,     Denmark     (RPA(D) and HRPA(D) properties in AOSOPPA)
  Kristian Sneskov,         Aarhus University,            Denmark     (Polarizable embedding, QM/MM)
  Arnfinn H. Steindal,      UiT The Arctic U. of Norway,  Norway      (parallel QM/MM, polarizable embedding)
  Casper Steinmann,         Aalborg University,           Denmark     (QFIT, polarizable embedding)
  K. O. Sylvester-Hvid,     University of Copenhagen,     Denmark     (MC-SCRF)
  Peter R. Taylor,          VLSCI/Univ. of Melbourne,     Australia   (Symmetry handling ABACUS, integral transformation)
  Andrew M. Teale,          University of Nottingham,     England     (DFT-AC, DFT-D)
  David P. Tew,             University of Bristol,        England     (CCSD(R12))
  Julien Toulouse,          Sorbonne Univ.,               France      (MC-srDFT)
  Olav Vahtras,             KTH Stockholm,                Sweden      (Triplet response, spin-orbit, ESR, TDDFT, open-shell DFT)
  Lucas Visscher,           Vrije Universiteit Amsterdam, Netherlands (Frozen density embedding)
  David J. Wilson,          La Trobe University,          Australia   (DFT Hessian and DFT magnetizabilities)
  Hans Agren,               KTH Stockholm,                Sweden      (SIRIUS module, RESPONS, MC-SCRF solvation)
 --------------------------------------------------------------------------------

     Date and time (Linux)  : Tue May  6 11:11:35 2025
     Host name              : xm048                                   

 * Work memory size             :  1310720000 =  9.766 gigabytes.

 * Directories for basis set searches:
   1) /gpfs/projects/rjh/adrian/summer2025/beta_projects/raw_data/NLO/dalton/hf/n3/dipole
   2) /gpfs/projects/rjh/adrian/dalton/build/basis


Compilation information
-----------------------

 Who compiled             | ahurtado
 Host                     | milan2
 System                   | Linux-5.14.0-427.42.1.el9_4.x86_64
 CMake generator          | Unix Makefiles
 Processor                | x86_64
 64-bit integers          | OFF
 MPI                      | ON
 Fortran compiler         | /gpfs/software/openmpi/milan/gcc13.2/4.1.6/bin/mpi
                          | f90
 Fortran compiler version | GNU Fortran (GCC) 13.2.0
 C compiler               | /gpfs/software/openmpi/milan/gcc13.2/4.1.6/bin/mpi
                          | cc
 C compiler version       | gcc (GCC) 13.2.0
 C++ compiler             | /gpfs/software/openmpi/milan/gcc13.2/4.1.6/bin/mpi
                          | cxx
 C++ compiler version     | unknown
 BLAS                     | /gpfs/software/intel/oneAPI/2024_2/mkl/2024.2/lib/
                          | intel64/libmkl_gf_lp64.so;/gpfs/software/intel/one
                          | API/2024_2/mkl/2024.2/lib/intel64/libmkl_sequentia
                          | l.so;/gpfs/software/intel/oneAPI/2024_2/mkl/2024.2
                          | /lib/intel64/libmkl_core.so;/usr/lib64/libpthread.
                          | a;/usr/lib64/libm.so
 LAPACK                   | /gpfs/software/intel/oneAPI/2024_2/mkl/2024.2/lib/
                          | intel64/libmkl_lapack95_lp64.a;/gpfs/software/inte
                          | l/oneAPI/2024_2/mkl/2024.2/lib/intel64/libmkl_gf_l
                          | p64.so
 Static linking           | OFF
 Last Git revision        | 66052b3af5ea7225e31178bf9a8b031913c72190
 Git branch               | (HEAD detached at Dalton2020.0)
 Configuration time       | 2025-04-10 16:02:31.569498

 * MPI parallel run using 96 processes.


   Content of the .dal input file
 ----------------------------------

**DALTON INPUT
.RUN RESPONSE
.DIRECT
**WAVE FUNCTIONS
.HF
**PROPERTIES
**RESPONSE
*QUADRA
.DIPLEN
.FREQUENCIES
3
0.0 0.019337625 0.03867525
**END OF DALTON INPUT


   Content of the .mol file
 ----------------------------

BASIS
d-aug-cc-pVQZ
blah
blah
Atomtype=4 Angstrom Charge=0 Nosymmetry
Charge=6 Atoms=6
C_a 3.5837590001880586 1.689807997561741 0.0
C_b 2.218342998768872 1.7965149998534866 0.0
C_c 1.3696039998245548 0.6327549976112581 0.0
C_d 0.0 0.6496800004299873 0.0
C_e -0.7822710021759658 -0.5644059981134033 0.0
C_f -2.135866999786617 -0.5945379993769223 0.0
Charge=7 Atoms=2
N_a 4.474126999726809 2.724384999838376 0.0
N_b -2.8592999997239983 -1.8575000010382903 0.0
Charge=8 Atoms=2
O_a -2.221885998947471 -2.9141560016617842 0.0
O_b -4.093871998581652 -1.7679050022079805 0.0
Charge=1 Atoms=8
H_a 4.045026999956447 0.6942230000033286 0.0
H_b 1.7506710022323968 2.7899280001342484 0.0
H_c 4.154989997874813 3.6838820007917366 0.0
H_d 5.468287002433469 2.5547250021906613 0.0
H_e 1.868681002197853 -0.3486340010462551 0.0
H_f -0.5281119981120097 1.6124769980950349 0.0
H_g -0.2588490011384542 -1.528719998671823 0.0
H_h -2.799823000128213 0.27152800243775366 0.0


       *******************************************************************
       *********** Output from DALTON general input processing ***********
       *******************************************************************

 --------------------------------------------------------------------------------
   Overall default print level:    0
   Print level for DALTON.STAT:    1

    Parallel calculation using MPI
    AO-direct calculation (in sections where implemented)
    HERMIT 1- and 2-electron integral sections will be executed
    "Old" integral transformation used (limited to max 255 basis functions)
    Wave function sections will be executed (SIRIUS module)
    Dynamic molecular response properties section will be executed (RESPONSE module)
 --------------------------------------------------------------------------------


   ****************************************************************************
   *************** Output of molecule and basis set information ***************
   ****************************************************************************


    The two title cards from your ".mol" input:
    ------------------------------------------------------------------------
 1: blah                                                                    
 2: blah                                                                    
    ------------------------------------------------------------------------

  Coordinates are entered in Angstrom and converted to atomic units.
          - Conversion factor : 1 bohr = 0.52917721 A

  Atomic type no.    1
  --------------------
  Nuclear charge:   6.00000
  Number of symmetry independent centers:    6
  Number of basis sets to read;    2
  Basis set file used for this atomic type with Z =   6 :
     "/gpfs/projects/rjh/adrian/dalton/build/basis/aug-cc-pVQZ"

  Atomic type no.    2
  --------------------
  Nuclear charge:   7.00000
  Number of symmetry independent centers:    2
  Number of basis sets to read;    2
  Basis set file used for this atomic type with Z =   7 :
     "/gpfs/projects/rjh/adrian/dalton/build/basis/aug-cc-pVQZ"

  Atomic type no.    3
  --------------------
  Nuclear charge:   8.00000
  Number of symmetry independent centers:    2
  Number of basis sets to read;    2
  Basis set file used for this atomic type with Z =   8 :
     "/gpfs/projects/rjh/adrian/dalton/build/basis/aug-cc-pVQZ"

  Atomic type no.    4
  --------------------
  Nuclear charge:   1.00000
  Number of symmetry independent centers:    8
  Number of basis sets to read;    2
  Basis set file used for this atomic type with Z =   1 :
     "/gpfs/projects/rjh/adrian/dalton/build/basis/aug-cc-pVQZ"


                         SYMGRP: Point group information
                         -------------------------------

@    Point group: C1 


                                 Isotopic Masses
                                 ---------------

                           C_a        12.000000
                           C_b        12.000000
                           C_c        12.000000
                           C_d        12.000000
                           C_e        12.000000
                           C_f        12.000000
                           N_a        14.003074
                           N_b        14.003074
                           O_a        15.994915
                           O_b        15.994915
                           H_a         1.007825
                           H_b         1.007825
                           H_c         1.007825
                           H_d         1.007825
                           H_e         1.007825
                           H_f         1.007825
                           H_g         1.007825
                           H_h         1.007825

                       Total mass:   140.058578 amu
                       Natural abundance:  92.331 %

 Center-of-mass coordinates (a.u.):   -0.182911   -0.129889    0.000000
 Center-of-mass coordinates (Angs):   -0.096792   -0.068734    0.000000


  Atoms and basis sets
  --------------------

  Number of atom types :    4
  Total number of atoms:   18

  Basis set used is "d-aug-cc-pVQZ" from the basis set library.

  label    atoms   charge   prim   cont     basis
  ----------------------------------------------------------------------
  C_          6    6.0000   118   105      [14s8p5d4f3g|7s6p5d4f3g]                           
  N_          2    7.0000   118   105      [14s8p5d4f3g|7s6p5d4f3g]                           
  O_          2    8.0000   118   105      [14s8p5d4f3g|7s6p5d4f3g]                           
  H_          8    1.0000    64    62      [8s5p4d3f|6s5p4d3f]                                
  ----------------------------------------------------------------------
  total:     18   74.0000  1692  1546
  ----------------------------------------------------------------------
  Spherical harmonic basis used.

  Threshold for neglecting AO integrals:  1.00D-12

  Max    interatomic separation is   10.4938 Angstrom (   19.8304 Bohr)
  between atoms   14 and   10, "H_d   " and "O_b   ".

  Min HX interatomic separation is    1.0085 Angstrom (    1.9059 Bohr)

  Min YX interatomic separation is    1.2340 Angstrom (    2.3320 Bohr)


  Bond distances (Angstrom):
  --------------------------

                  atom 1     atom 2       distance
                  ------     ------       --------
  bond distance:  C_b        C_a          1.369579
  bond distance:  C_c        C_b          1.440380
  bond distance:  C_d        C_c          1.369709
  bond distance:  C_e        C_d          1.444283
  bond distance:  C_f        C_e          1.353931
  bond distance:  N_a        C_a          1.364956
  bond distance:  N_b        C_f          1.455482
  bond distance:  O_a        N_b          1.234025
  bond distance:  O_b        N_b          1.237819
  bond distance:  H_a        C_a          1.097250
  bond distance:  H_b        C_b          1.097992
  bond distance:  H_c        N_a          1.011179
  bond distance:  H_d        N_a          1.008533
  bond distance:  H_e        C_c          1.101001
  bond distance:  H_f        C_d          1.098126
  bond distance:  H_g        C_e          1.097211
  bond distance:  H_h        C_f          1.091287


  Bond angles (degrees):
  ----------------------

                  atom 1     atom 2     atom 3         angle
                  ------     ------     ------         -----
  bond angle:     C_b        C_a        N_a          126.247
  bond angle:     C_b        C_a        H_a          119.327
  bond angle:     N_a        C_a        H_a          114.425
  bond angle:     C_a        C_b        C_c          121.635
  bond angle:     C_a        C_b        H_b          119.678
  bond angle:     C_c        C_b        H_b          118.687
  bond angle:     C_b        C_c        C_d          125.396
  bond angle:     C_b        C_c        H_e          116.941
  bond angle:     C_d        C_c        H_e          117.663
  bond angle:     C_c        C_d        C_e          122.087
  bond angle:     C_c        C_d        H_f          119.454
  bond angle:     C_e        C_d        H_f          118.460
  bond angle:     C_d        C_e        C_f          124.070
  bond angle:     C_d        C_e        H_g          118.712
  bond angle:     C_f        C_e        H_g          117.218
  bond angle:     C_e        C_f        N_b          121.080
  bond angle:     C_e        C_f        H_h          126.200
  bond angle:     N_b        C_f        H_h          112.721
  bond angle:     C_a        N_a        H_c          120.887
  bond angle:     C_a        N_a        H_d          121.031
  bond angle:     H_c        N_a        H_d          118.082
  bond angle:     C_f        N_b        O_a          119.096
  bond angle:     C_f        N_b        O_b          115.654
  bond angle:     O_a        N_b        O_b          125.251




 Principal moments of inertia (u*A**2) and principal axes
 --------------------------------------------------------

   IA      61.539950          0.851426    0.524475    0.000000
   IB    1517.728391         -0.524475    0.851426    0.000000
   IC    1579.268341          0.000000    0.000000    1.000000


 Rotational constants
 --------------------

@    The molecule is planar.

               A                   B                   C

           8212.2102            332.9838            320.0083 MHz
            0.273930            0.011107            0.010674 cm-1


@  Nuclear repulsion energy :  451.042870482930 Hartree


                     .---------------------------------------.
                     | Starting in Integral Section (HERMIT) |
                     `---------------------------------------'



 ***************************************************************************************
 ****************** Output from **INTEGRALS input processing (HERMIT) ******************
 ***************************************************************************************


 - Using defaults, no **INTEGRALS input found

 Default print level:        1

 Calculation of one-electron Hamiltonian integrals.

 Center of mass  (bohr):     -0.182910683850     -0.129888666044      0.000000000000
 Operator center (bohr):      0.000000000000      0.000000000000      0.000000000000
 Gauge origin    (bohr):      0.000000000000      0.000000000000      0.000000000000
 Dipole origin   (bohr):      0.000000000000      0.000000000000      0.000000000000


     ************************************************************************
     ************************** Output from HERINT **************************
     ************************************************************************



                      Nuclear contribution to dipole moments
                      --------------------------------------

                 au               Debye          C m (/(10**-30)

      x      0.00000946         0.00002404         0.00008021
      y     -0.00000009        -0.00000023        -0.00000076
      z      0.00000000         0.00000000         0.00000000


  Time used in ONEDRV     is       3.18 seconds
  Time used in HUCKEL     is       0.89 seconds
  Time used in OVERLAP    is       0.51 seconds
  Time used in POPOVLP    is       1.00 seconds
  Time used in R2         is       0.65 seconds
  Time used in R4         is       0.82 seconds
  Time used in DIPLEN     is       1.04 seconds
  Time used in QUADRUP    is       2.12 seconds
  Time used in KINENE     is       0.83 seconds
  Time used in GABGEN     is      28.35 seconds
  Total CPU  time used in HERMIT:  39.40 seconds
  Total wall time used in HERMIT:  40.52 seconds


                        .----------------------------------.
                        | End of Integral Section (HERMIT) |
                        `----------------------------------'



                   .--------------------------------------------.
                   | Starting in Wave Function Section (SIRIUS) |
                   `--------------------------------------------'



@ Primary orbitals are deleted during canonical orthonormalization
@   because of detected numerical linear dependence or too large coefficients.
@ Eigenvalue threshold for num. lin. dep. =  1.00D-06

@  64 MO components are deleted in symmetry    1
 Overlap eigenvalues of the deleted orbitals:
  9.86D-07  9.79D-07  8.94D-07  8.08D-07  7.46D-07
  6.96D-07  6.51D-07  6.41D-07  6.14D-07  6.07D-07
  5.50D-07  5.20D-07  4.98D-07  4.75D-07  4.45D-07
  4.45D-07  3.66D-07  3.55D-07  3.37D-07  3.18D-07
  3.00D-07  2.89D-07  2.39D-07  2.30D-07  2.22D-07
  2.08D-07  1.78D-07  1.61D-07  1.47D-07  1.36D-07
  1.28D-07  1.17D-07  1.09D-07  9.83D-08  9.61D-08
  8.38D-08  7.78D-08  6.97D-08  6.20D-08  6.01D-08
  5.59D-08  4.44D-08  3.83D-08  3.64D-08  3.52D-08
  2.95D-08  2.90D-08  2.69D-08  2.46D-08  2.25D-08
  1.92D-08  1.58D-08  1.47D-08  1.41D-08  1.23D-08
  1.11D-08  9.42D-09  9.12D-09  8.49D-09  7.13D-09
  6.50D-09  4.69D-09  4.00D-09  2.43D-09

 Max MO coeff. of last deleted MO & limit:  3.39D+02  1.00D+03

WARNING: Orbitals have been deleted because of numerical
   linear dependence although not requested in input.

 *** Output from Huckel module :

     Using EWMO model:          T
     Using EHT  model:          F
     Number of Huckel orbitals each symmetry:   58

 EWMO - Energy Weighted Maximum Overlap - is a Huckel type method,
        which normally is better than Extended Huckel Theory.
 Reference: Linderberg and Ohrn, Propagators in Quantum Chemistry (Wiley, 1973)

 Huckel EWMO eigenvalues for symmetry :  1
          -20.684750     -20.683474     -15.677071     -15.675001     -11.359082
          -11.357415     -11.353225     -11.347774     -11.345861     -11.345413
           -1.964419      -1.783424      -1.682928      -1.470831      -1.433671
           -1.201513      -1.142494      -0.977556      -0.959778      -0.851863
           -0.830674      -0.777499      -0.732006      -0.723226      -0.674592
           -0.618895      -0.617907      -0.585176      -0.569349      -0.536174
           -0.521070      -0.494222      -0.489654      -0.485955      -0.476642
           -0.401925      -0.393268      -0.332908      -0.263469      -0.229215
           -0.220728      -0.201503      -0.199652      -0.190332      -0.166112
           -0.142690      -0.137254      -0.130788      -0.128057      -0.126733
           -0.125875      -0.122465      -0.106958      -0.101747      -0.091911
           -0.089595      -0.085067      -0.080563

 **********************************************************************
 *SIRIUS* a direct, restricted step, second order MCSCF program       *
 **********************************************************************

 
     Date and time (Linux)  : Tue May  6 11:15:21 2025
     Host name              : xm048                                   

 Title lines from ".mol" input file:
     blah                                                                    
     blah                                                                    

 Print level on unit LUPRI =   2 is   0
 Print level on unit LUW4  =   2 is   5

@    Restricted, closed shell Hartree-Fock calculation.

@    Time-dependent Hartree-Fock calculation (random phase approximation).
 Fock matrices are calculated directly and in parallel without use of integrals on disk.

 Initial molecular orbitals are obtained according to
 ".MOSTART EWMO  " input option

     Wave function specification
     ============================
@    Wave function type        --- HF ---
@    Number of closed shell electrons          74
@    Number of electrons in active shells       0
@    Total charge of the molecule               0

@    Spin multiplicity and 2 M_S                1         0
@    Total number of symmetries                 1 (point group: C1 )
@    Reference state symmetry                   1 (irrep name : A  )

     Orbital specifications
     ======================
@    Abelian symmetry species          All |    1
@                                          |  A  
                                       --- |  ---
@    Occupied SCF orbitals              37 |   37
@    Secondary orbitals               1445 | 1445
@    Total number of orbitals         1482 | 1482
@    Number of basis functions        1546 | 1546

     Optimization information
     ========================
@    Number of configurations                 1
@    Number of orbital rotations          53465
     ------------------------------------------
@    Total number of variables            53466

     Maximum number of Fock   iterations      0
     Maximum number of DIIS   iterations     60
     Maximum number of QC-SCF iterations     60
     Threshold for SCF convergence     1.00D-05

    INFORMATION: Switched to "new" integral transformation (from 1988 ;-) )
    because more than 255 basis functions.


 ***********************************************
 ***** DIIS acceleration of SCF iterations *****
 ***********************************************

 C1-DIIS algorithm; max error vectors =    8

 Iter      Total energy        Error norm    Delta(E)  DIIS dim.
 -----------------------------------------------------------------------------
   1  Screening settings (-IFTHRS, JTDIIS, DIFDEN, times)  -10    1    T  4.00D+02  4.03D+02
@  1    -488.435200493        6.03996D+00   -4.88D+02    1
      Virial theorem: -V/T =      2.004764
@    MULPOP   C_a     1.33; C_b    -0.18; C_c     0.15; C_d    -0.08; C_e     0.21; C_f     0.84; N_a    -1.24; N_b     4.53; O_a    -3.00; O_b    -3.41; 
@             H_a     0.17; H_b     0.13; H_c     0.24; H_d     0.05; H_e    -0.05; H_f     0.05; H_g     0.14; H_h     0.11; 
   1  Level shift: doubly occupied orbital energies shifted by -2.00D-01
 -----------------------------------------------------------------------------
   2  Screening settings (-IFTHRS, JTDIIS, DIFDEN, times)  -10    2    T  3.99D+02  4.01D+02
@  2    -490.126715618        2.87583D+00   -1.69D+00    2
      Virial theorem: -V/T =      2.001931
@    MULPOP   C_a     0.47; C_b    -0.20; C_c    -0.14; C_d    -0.35; C_e     0.07; C_f    -0.18; N_a    -0.87; N_b     1.52; O_a    -0.97; O_b    -1.05; 
@             H_a     0.26; H_b     0.20; H_c     0.29; H_d     0.20; H_e     0.16; H_f     0.16; H_g     0.24; H_h     0.20; 
   2  Level shift: doubly occupied orbital energies shifted by -1.00D-01
 -----------------------------------------------------------------------------
   3  Screening settings (-IFTHRS, JTDIIS, DIFDEN, times)  -10    3    T  3.97D+02  3.98D+02
@  3    -490.492794126        6.76010D-01   -3.66D-01    3
      Virial theorem: -V/T =      2.001027
@    MULPOP   C_a     0.47; C_b    -0.10; C_c    -0.03; C_d    -0.19; C_e     0.21; C_f    -0.04; N_a    -0.70; N_b     2.10; O_a    -1.20; O_b    -1.46; 
@             H_a     0.17; H_b     0.08; H_c     0.24; H_d     0.12; H_e     0.04; H_f     0.07; H_g     0.13; H_h     0.07; 
   3  Level shift: doubly occupied orbital energies shifted by -2.50D-02
 -----------------------------------------------------------------------------
   4  Screening settings (-IFTHRS, JTDIIS, DIFDEN, times)  -10    4    T  3.95D+02  3.96D+02
@  4    -490.522011376        2.21969D-01   -2.92D-02    4
      Virial theorem: -V/T =      2.002967
@    MULPOP   C_a     0.49; C_b    -0.06; C_c     0.07; C_d    -0.13; C_e     0.28; C_f    -0.09; N_a    -0.59; N_b     1.96; O_a    -1.15; O_b    -1.38; 
@             H_a     0.12; H_b     0.03; H_c     0.19; H_d     0.07; H_e    -0.01; H_f     0.02; H_g     0.11; H_h     0.07; 
   4  Level shift: doubly occupied orbital energies shifted by -1.25D-02
 -----------------------------------------------------------------------------
   5  Screening settings (-IFTHRS, JTDIIS, DIFDEN, times)  -14    5    F  4.09D+02  4.10D+02
@  5    -490.527290094        8.34175D-02   -5.28D-03    5
      Virial theorem: -V/T =      2.002343
@    MULPOP   C_a     0.46; C_b    -0.08; C_c     0.03; C_d    -0.14; C_e     0.25; C_f    -0.07; N_a    -0.59; N_b     2.00; O_a    -1.15; O_b    -1.41; 
@             H_a     0.14; H_b     0.05; H_c     0.20; H_d     0.08; H_e     0.01; H_f     0.04; H_g     0.12; H_h     0.07; 
 -----------------------------------------------------------------------------
   6  Screening settings (-IFTHRS, JTDIIS, DIFDEN, times)  -14    6    T  4.05D+02  4.06D+02
@  6    -490.528417597        3.59330D-02   -1.13D-03    6
      Virial theorem: -V/T =      2.002196
@    MULPOP   C_a     0.45; C_b    -0.07; C_c     0.04; C_d    -0.14; C_e     0.26; C_f    -0.09; N_a    -0.60; N_b     1.99; O_a    -1.15; O_b    -1.39; 
@             H_a     0.14; H_b     0.05; H_c     0.20; H_d     0.08; H_e     0.00; H_f     0.04; H_g     0.12; H_h     0.07; 
 -----------------------------------------------------------------------------
   7  Screening settings (-IFTHRS, JTDIIS, DIFDEN, times)  -14    7    T  4.02D+02  4.05D+02
@  7    -490.528668375        1.73050D-02   -2.51D-04    7
      Virial theorem: -V/T =      2.002253
@    MULPOP   C_a     0.45; C_b    -0.07; C_c     0.04; C_d    -0.14; C_e     0.26; C_f    -0.09; N_a    -0.60; N_b     1.99; O_a    -1.14; O_b    -1.40; 
@             H_a     0.14; H_b     0.05; H_c     0.20; H_d     0.08; H_e     0.01; H_f     0.04; H_g     0.12; H_h     0.07; 
 -----------------------------------------------------------------------------
   8  Screening settings (-IFTHRS, JTDIIS, DIFDEN, times)  -14    8    T  4.05D+02  4.06D+02
@  8    -490.528720122        6.86111D-03   -5.17D-05    8
      Virial theorem: -V/T =      2.002246
@    MULPOP   C_a     0.45; C_b    -0.07; C_c     0.04; C_d    -0.14; C_e     0.26; C_f    -0.09; N_a    -0.60; N_b     2.00; O_a    -1.14; O_b    -1.40; 
@             H_a     0.14; H_b     0.05; H_c     0.20; H_d     0.08; H_e     0.01; H_f     0.04; H_g     0.12; H_h     0.07; 
 -----------------------------------------------------------------------------
   9  Screening settings (-IFTHRS, JTDIIS, DIFDEN, times)  -14    9    T  4.03D+02  4.04D+02
@  9    -490.528727817        2.24183D-03   -7.70D-06    8
      Virial theorem: -V/T =      2.002235
@    MULPOP   C_a     0.45; C_b    -0.07; C_c     0.04; C_d    -0.14; C_e     0.27; C_f    -0.09; N_a    -0.60; N_b     2.00; O_a    -1.14; O_b    -1.40; 
@             H_a     0.14; H_b     0.05; H_c     0.20; H_d     0.08; H_e     0.01; H_f     0.04; H_g     0.12; H_h     0.07; 
 -----------------------------------------------------------------------------
  10  Screening settings (-IFTHRS, JTDIIS, DIFDEN, times)  -14   10    T  4.01D+02  4.02D+02
@ 10    -490.528728937        1.08344D-03   -1.12D-06    8
      Virial theorem: -V/T =      2.002237
@    MULPOP   C_a     0.45; C_b    -0.07; C_c     0.04; C_d    -0.14; C_e     0.26; C_f    -0.09; N_a    -0.60; N_b     2.00; O_a    -1.14; O_b    -1.40; 
@             H_a     0.13; H_b     0.05; H_c     0.20; H_d     0.08; H_e     0.01; H_f     0.04; H_g     0.12; H_h     0.07; 
 -----------------------------------------------------------------------------
  11  Screening settings (-IFTHRS, JTDIIS, DIFDEN, times)  -14   11    T  4.00D+02  4.02D+02
@ 11    -490.528729208        5.77002D-04   -2.71D-07    8
      Virial theorem: -V/T =      2.002237
@    MULPOP   C_a     0.45; C_b    -0.07; C_c     0.04; C_d    -0.14; C_e     0.26; C_f    -0.09; N_a    -0.60; N_b     2.00; O_a    -1.14; O_b    -1.40; 
@             H_a     0.13; H_b     0.05; H_c     0.20; H_d     0.08; H_e     0.01; H_f     0.04; H_g     0.12; H_h     0.07; 
 -----------------------------------------------------------------------------
  12  Screening settings (-IFTHRS, JTDIIS, DIFDEN, times)  -14   12    T  4.00D+02  4.01D+02
@ 12    -490.528729296        1.83991D-04   -8.87D-08    8
      Virial theorem: -V/T =      2.002236
@    MULPOP   C_a     0.45; C_b    -0.07; C_c     0.04; C_d    -0.14; C_e     0.26; C_f    -0.09; N_a    -0.60; N_b     2.00; O_a    -1.14; O_b    -1.40; 
@             H_a     0.13; H_b     0.05; H_c     0.20; H_d     0.08; H_e     0.01; H_f     0.04; H_g     0.12; H_h     0.07; 
 -----------------------------------------------------------------------------
  13  Screening settings (-IFTHRS, JTDIIS, DIFDEN, times)  -14   13    T  3.97D+02  3.98D+02
@ 13    -490.528729305        8.82939D-05   -8.59D-09    8
      Virial theorem: -V/T =      2.002236
@    MULPOP   C_a     0.45; C_b    -0.07; C_c     0.04; C_d    -0.14; C_e     0.26; C_f    -0.09; N_a    -0.60; N_b     2.00; O_a    -1.14; O_b    -1.40; 
@             H_a     0.13; H_b     0.05; H_c     0.20; H_d     0.08; H_e     0.01; H_f     0.04; H_g     0.12; H_h     0.07; 
 -----------------------------------------------------------------------------
  14  Screening settings (-IFTHRS, JTDIIS, DIFDEN, times)  -14   14    T  3.97D+02  3.99D+02
@ 14    -490.528729306        2.64745D-05   -1.10D-09    8
      Virial theorem: -V/T =      2.002236
@    MULPOP   C_a     0.45; C_b    -0.07; C_c     0.04; C_d    -0.14; C_e     0.26; C_f    -0.09; N_a    -0.60; N_b     2.00; O_a    -1.14; O_b    -1.40; 
@             H_a     0.13; H_b     0.05; H_c     0.20; H_d     0.08; H_e     0.01; H_f     0.04; H_g     0.12; H_h     0.07; 
 -----------------------------------------------------------------------------
  15  Screening settings (-IFTHRS, JTDIIS, DIFDEN, times)  -14   15    T  3.97D+02  3.98D+02
@ 15    -490.528729306        1.08941D-05   -1.05D-10    8
      Virial theorem: -V/T =      2.002236
@    MULPOP   C_a     0.45; C_b    -0.07; C_c     0.04; C_d    -0.14; C_e     0.26; C_f    -0.09; N_a    -0.60; N_b     2.00; O_a    -1.14; O_b    -1.40; 
@             H_a     0.13; H_b     0.05; H_c     0.20; H_d     0.08; H_e     0.01; H_f     0.04; H_g     0.12; H_h     0.07; 
 -----------------------------------------------------------------------------
  16  Screening settings (-IFTHRS, JTDIIS, DIFDEN, times)  -14   16    T  3.96D+02  3.98D+02
@ 16    -490.528729306        5.55101D-06   -1.50D-11    8

@ *** DIIS converged in  16 iterations !
@     Converged SCF energy, gradient:   -490.528729306132    5.55D-06
    - total time used in SIRFCK :              0.00 seconds


 *** SCF orbital energy analysis ***

 Only the 20 lowest virtual orbital energies printed in each symmetry.

 Number of electrons :   74
 Orbital occupations :   37

 Sym       Hartree-Fock orbital energies

1 A     -20.57691938   -20.57410856   -15.82882468   -15.60845871   -11.32341545
        -11.28200049   -11.27905398   -11.27613771   -11.24501652   -11.24123732
         -1.56891837    -1.36642989    -1.25579989    -1.13282730    -1.09059743
         -1.02086667    -0.93633282    -0.84413982    -0.79875490    -0.77985860
         -0.74640998    -0.72084512    -0.70558939    -0.69077204    -0.68829930
         -0.64170191    -0.60059310    -0.58465439    -0.55350976    -0.54244076
         -0.52686941    -0.47393178    -0.47336161    -0.47050140    -0.43268603
         -0.39389209    -0.28734074    -0.00205018     0.00427086     0.00842838
          0.01072776     0.01289212     0.01592083     0.01677677     0.01900941
          0.02119858     0.02195503     0.02251132     0.02351839     0.02479900
          0.02887365     0.03432581     0.03452203     0.03553877     0.03603069
          0.03693382     0.03948348

    E(LUMO) :    -0.00205018 au (symmetry 1)
  - E(HOMO) :    -0.28734074 au (symmetry 1)
  ------------------------------------------
    gap     :     0.28529056 au

 --- Writing SIRIFC interface file

 CPU and wall time for SCF :    6782.090    6809.192


                       .-----------------------------------.
                       | --- Final results from SIRIUS --- |
                       `-----------------------------------'


@    Spin multiplicity:           1
@    Spatial symmetry:            1 ( irrep  A   in C1  )
@    Total charge of molecule:    0

@    Final HF energy:            -490.528729306132                 
@    Nuclear repulsion:           451.042870482930
@    Electronic energy:          -941.571599789062

@    Final gradient norm:           0.000005551006

 
     Date and time (Linux)  : Tue May  6 13:08:57 2025
     Host name              : xm048                                   

File label for MO orbitals:   6May25   FOCKDIIS

 (Only coefficients > 0.0100 are printed.)

 Molecular orbitals for symmetry species 1  (A  )
 ------------------------------------------------

    Orbital        28       29       30       31       32       33       34
   2 C_a :1s    -0.0879  -0.0355  -0.0000   0.0285   0.0139   0.0000  -0.0008
   4 C_a :1s     0.0320  -0.0300   0.0000   0.0245  -0.0015  -0.0000   0.0341
   5 C_a :1s     0.0061  -0.0037   0.0000   0.0033  -0.0124  -0.0000   0.0080
   6 C_a :1s     0.0038   0.0139   0.0000   0.0146  -0.0131  -0.0000   0.0212
   7 C_a :1s     0.0132   0.0371   0.0000   0.0046  -0.0141  -0.0000  -0.0070
   8 C_a :2px    0.3777   0.2125  -0.0000  -0.0741  -0.0232   0.0000   0.0030
   9 C_a :2py   -0.1670  -0.2238  -0.0000   0.0742  -0.0026   0.0000  -0.0008
  10 C_a :2pz   -0.0000   0.0000   0.4290  -0.0000   0.0000  -0.0377  -0.0000
  14 C_a :2px   -0.0341   0.0209   0.0000  -0.0238  -0.0007   0.0000  -0.0223
  15 C_a :2py   -0.0327  -0.0154   0.0000   0.0096   0.0046  -0.0000  -0.0015
  16 C_a :2pz   -0.0000   0.0000   0.0207  -0.0000   0.0000   0.0035  -0.0000
  17 C_a :2px    0.0016  -0.0062   0.0000  -0.0032   0.0147  -0.0000   0.0497
  18 C_a :2py   -0.0049   0.0269  -0.0000  -0.0151  -0.0196   0.0000   0.0127
  19 C_a :2pz   -0.0000  -0.0000  -0.0642   0.0000  -0.0000   0.0064  -0.0000
  20 C_a :2px    0.0001  -0.0148  -0.0000   0.0120  -0.0002   0.0000  -0.0433
  21 C_a :2py   -0.0245   0.0070  -0.0000   0.0023  -0.0702   0.0000   0.0299
  22 C_a :2pz   -0.0000   0.0000  -0.1198  -0.0000   0.0000   0.0674   0.0000
  23 C_a :2px   -0.0019   0.0045  -0.0000  -0.0190  -0.0183   0.0000   0.0096
  24 C_a :2py    0.0004   0.0072   0.0000  -0.0143  -0.0286  -0.0000  -0.0091
  31 C_a :3d2-   0.0013  -0.0125  -0.0000   0.0072  -0.0015   0.0000   0.0003
  32 C_a :3d1-   0.0000   0.0000   0.0118  -0.0000   0.0000  -0.0050   0.0000
  35 C_a :3d2+  -0.0126  -0.0104   0.0000   0.0044   0.0003  -0.0000   0.0003
  36 C_a :3d2-   0.0192   0.0310  -0.0000  -0.0157   0.0143  -0.0000  -0.0279
  37 C_a :3d1-   0.0000   0.0000   0.0267  -0.0000   0.0000  -0.0014   0.0000
  39 C_a :3d1+   0.0000   0.0000  -0.0218  -0.0000   0.0000   0.0020   0.0000
  41 C_a :3d2-  -0.0190  -0.0106   0.0000  -0.0344  -0.0159  -0.0000   0.0338
  42 C_a :3d1-  -0.0000   0.0000  -0.1147  -0.0000   0.0000   0.0317   0.0000
  43 C_a :3d0   -0.0042  -0.0103   0.0000   0.0057  -0.0028  -0.0000   0.0016
  44 C_a :3d1+  -0.0000   0.0000  -0.1192  -0.0000   0.0000   0.0916   0.0000
  45 C_a :3d2+  -0.0051   0.0390   0.0000  -0.0097  -0.0012  -0.0000  -0.0114
  46 C_a :3d2-  -0.0095   0.0049   0.0000  -0.0021  -0.0134  -0.0000   0.0270
  47 C_a :3d1-  -0.0000  -0.0000  -0.0266  -0.0000   0.0000   0.0475  -0.0000
  48 C_a :3d0    0.0003  -0.0023   0.0000  -0.0045  -0.0026  -0.0000  -0.0119
  49 C_a :3d1+  -0.0000  -0.0000   0.0076   0.0000  -0.0000  -0.0131  -0.0000
  50 C_a :3d2+  -0.0088  -0.0040   0.0000  -0.0085  -0.0169  -0.0000  -0.0205
  65 C_a :4f3-   0.0044  -0.0197   0.0000   0.0148  -0.0066  -0.0000   0.0085
  66 C_a :4f2-  -0.0000  -0.0000  -0.0328  -0.0000   0.0000   0.0026   0.0000
  68 C_a :4f0    0.0000   0.0000   0.0168   0.0000  -0.0000  -0.0000   0.0000
  70 C_a :4f2+  -0.0000  -0.0000  -0.0161   0.0000  -0.0000  -0.0009  -0.0000
  71 C_a :4f3+  -0.0166  -0.0150  -0.0000   0.0105   0.0048   0.0000  -0.0027
  72 C_a :4f3-  -0.0093   0.0039   0.0000   0.0175  -0.0044  -0.0000  -0.0206
  75 C_a :4f0    0.0000  -0.0000   0.0141   0.0000  -0.0000  -0.0118  -0.0000
  77 C_a :4f2+   0.0000  -0.0000   0.0229   0.0000  -0.0000  -0.0475  -0.0000
  78 C_a :4f3+   0.0089  -0.0034   0.0000   0.0195   0.0237  -0.0000  -0.0344
  97 C_a :5g4-  -0.0130  -0.0034  -0.0000  -0.0019   0.0058   0.0000  -0.0051
 104 C_a :5g3+   0.0000   0.0000   0.0112   0.0000  -0.0000  -0.0014  -0.0000
 105 C_a :5g4+   0.0002   0.0139  -0.0000  -0.0123   0.0015   0.0000  -0.0009
 107 C_b :1s     0.0445  -0.0126   0.0000   0.0633  -0.0189  -0.0000   0.0072
 109 C_b :1s    -0.0338  -0.0586  -0.0000   0.0496   0.0378   0.0000  -0.0067
 110 C_b :1s    -0.0097   0.0077  -0.0000   0.0154   0.0067   0.0000   0.0087
 111 C_b :1s    -0.0027   0.0123   0.0000   0.0111   0.0148  -0.0000   0.0208
 112 C_b :1s     0.0159   0.0333   0.0000   0.0003   0.0068  -0.0000  -0.0039
 113 C_b :2px   -0.4375  -0.1953   0.0000   0.0135   0.0350  -0.0000  -0.0082
 114 C_b :2py   -0.1182   0.3549  -0.0000  -0.3162   0.0331   0.0000  -0.0118
 115 C_b :2pz   -0.0000   0.0000   0.2818  -0.0000   0.0000   0.1596  -0.0000
 119 C_b :2px    0.0140   0.0068   0.0000  -0.0201  -0.0006  -0.0000  -0.0135
 120 C_b :2py   -0.0083   0.0030  -0.0000  -0.0221  -0.0077   0.0000   0.0093
 121 C_b :2pz    0.0000   0.0000   0.0284  -0.0000   0.0000   0.0111  -0.0000
 122 C_b :2px    0.0263   0.0062  -0.0000  -0.0041  -0.0127   0.0000  -0.0448
 123 C_b :2py    0.0098  -0.0062   0.0000   0.0153   0.0001   0.0000   0.0154
 124 C_b :2pz   -0.0000   0.0000  -0.1048  -0.0000   0.0000   0.0795   0.0000
 125 C_b :2px    0.0223   0.0023  -0.0000   0.0226   0.0110   0.0000   0.0165
 126 C_b :2py   -0.0024  -0.0183   0.0000  -0.0213  -0.0046  -0.0000   0.0211
 127 C_b :2pz   -0.0000   0.0000   0.0236  -0.0000   0.0000  -0.0355  -0.0000
 128 C_b :2px    0.0052  -0.0116   0.0000   0.0157   0.0296  -0.0000   0.0097
 129 C_b :2py    0.0017  -0.0064   0.0000   0.0145   0.0242  -0.0000  -0.0066
 136 C_b :3d2-   0.0039  -0.0130  -0.0000   0.0127  -0.0006   0.0000   0.0003
 140 C_b :3d2+  -0.0146  -0.0108   0.0000   0.0079   0.0019  -0.0000  -0.0004
 141 C_b :3d2-   0.0360   0.0463  -0.0000  -0.0341   0.0062   0.0000  -0.0261
 142 C_b :3d1-   0.0000  -0.0000  -0.0244   0.0000  -0.0000  -0.0116   0.0000
 143 C_b :3d0   -0.0098  -0.0177  -0.0000   0.0077   0.0025   0.0000  -0.0005
 145 C_b :3d2+   0.0089   0.0569  -0.0000  -0.0491  -0.0113   0.0000  -0.0240
 146 C_b :3d2-   0.0329   0.0271   0.0000  -0.0044   0.0344  -0.0000   0.0138
 147 C_b :3d1-   0.0000  -0.0000   0.0521   0.0000  -0.0000   0.0120  -0.0000
 148 C_b :3d0   -0.0083  -0.0133  -0.0000   0.0046  -0.0095   0.0000   0.0142
 149 C_b :3d1+   0.0000   0.0000  -0.0671  -0.0000   0.0000   0.0775   0.0000
 150 C_b :3d2+  -0.0086  -0.0135  -0.0000  -0.0193  -0.0099   0.0000   0.0009
 151 C_b :3d2-   0.0129   0.0087   0.0000  -0.0122  -0.0007  -0.0000  -0.0296
 152 C_b :3d1-   0.0000   0.0000   0.0136   0.0000  -0.0000  -0.0437   0.0000
 153 C_b :3d0   -0.0077  -0.0031  -0.0000   0.0090  -0.0095   0.0000   0.0262
 154 C_b :3d1+   0.0000   0.0000   0.0312   0.0000  -0.0000  -0.0568   0.0000
 155 C_b :3d2+   0.0046   0.0100  -0.0000   0.0018   0.0065   0.0000   0.0277
 170 C_b :4f3-   0.0213   0.0110   0.0000   0.0217   0.0150  -0.0000   0.0036
 171 C_b :4f2-  -0.0000  -0.0000  -0.0415   0.0000   0.0000  -0.0070  -0.0000
 173 C_b :4f0    0.0000  -0.0000   0.0306   0.0000  -0.0000   0.0030  -0.0000
 175 C_b :4f2+   0.0000  -0.0000  -0.0330   0.0000   0.0000  -0.0017   0.0000
 176 C_b :4f3+  -0.0302  -0.0080  -0.0000  -0.0018   0.0122   0.0000  -0.0168
 177 C_b :4f3-  -0.0028   0.0120   0.0000   0.0059   0.0172  -0.0000   0.0667
 178 C_b :4f2-   0.0000  -0.0000   0.0643   0.0000  -0.0000  -0.0704  -0.0000
 179 C_b :4f1-  -0.0031  -0.0032   0.0000  -0.0040   0.0049  -0.0000  -0.0107
 180 C_b :4f0    0.0000  -0.0000  -0.0187  -0.0000   0.0000   0.0273   0.0000
 182 C_b :4f2+   0.0000   0.0000   0.0136   0.0000  -0.0000  -0.0094  -0.0000
 183 C_b :4f3+   0.0129  -0.0186   0.0000   0.0022   0.0511  -0.0000  -0.0143
 202 C_b :5g4-   0.0199   0.0099  -0.0000   0.0016  -0.0055   0.0000   0.0058
 209 C_b :5g3+  -0.0000  -0.0000  -0.0113   0.0000  -0.0000  -0.0030  -0.0000
 212 C_c :1s    -0.0351  -0.0095  -0.0000   0.0770   0.0271   0.0000   0.0067
 214 C_c :1s     0.0145  -0.0229  -0.0000   0.0951   0.0109   0.0000   0.0288
 215 C_c :1s    -0.0103   0.0045  -0.0000   0.0214  -0.0039   0.0000   0.0059
 216 C_c :1s    -0.0166   0.0067  -0.0000   0.0088  -0.0123   0.0000  -0.0076
 217 C_c :1s    -0.0087   0.0138  -0.0000  -0.0203  -0.0029  -0.0000  -0.0029
 218 C_c :2px    0.2778  -0.0630   0.0000  -0.1550  -0.0712  -0.0000  -0.0117
 219 C_c :2py    0.2605  -0.2211   0.0000   0.3761  -0.0267  -0.0000   0.0190
 220 C_c :2pz    0.0000   0.0000   0.1501  -0.0000   0.0000   0.3562   0.0000
 224 C_c :2px   -0.0081  -0.0294   0.0000  -0.0097  -0.0118  -0.0000   0.0006
 225 C_c :2py   -0.0078  -0.0071  -0.0000   0.0192  -0.0234   0.0000   0.0080
 226 C_c :2pz    0.0000   0.0000   0.0174  -0.0000   0.0000   0.0297   0.0000
 227 C_c :2px   -0.0458   0.0210  -0.0000   0.0147   0.0103   0.0000  -0.0234
 228 C_c :2py    0.0154   0.0224   0.0000  -0.0269   0.0098  -0.0000   0.0644
 229 C_c :2pz    0.0000   0.0000  -0.0511  -0.0000   0.0000   0.0865   0.0000
 230 C_c :2px    0.0279   0.0209   0.0000   0.0012   0.0121  -0.0000  -0.0081
 231 C_c :2py   -0.0141   0.0066   0.0000   0.0086  -0.0149  -0.0000  -0.0060
 232 C_c :2pz    0.0000   0.0000   0.0487  -0.0000   0.0000  -0.0737   0.0000
 233 C_c :2px   -0.0102  -0.0012  -0.0000   0.0046  -0.0167   0.0000  -0.0188
 234 C_c :2py   -0.0073  -0.0041  -0.0000   0.0050   0.0356   0.0000   0.0152
 241 C_c :3d2-   0.0119  -0.0058   0.0000   0.0196  -0.0022  -0.0000   0.0019
 245 C_c :3d2+  -0.0106  -0.0040   0.0000   0.0108   0.0018  -0.0000   0.0005
 246 C_c :3d2-  -0.0137   0.0189   0.0000  -0.0765  -0.0186  -0.0000  -0.0057
 247 C_c :3d1-   0.0000  -0.0000   0.0253   0.0000  -0.0000   0.0166   0.0000
 248 C_c :3d0    0.0079  -0.0087   0.0000   0.0167  -0.0014  -0.0000   0.0057
 249 C_c :3d1+   0.0000  -0.0000   0.0150   0.0000  -0.0000  -0.0238   0.0000
 250 C_c :3d2+   0.0212   0.0380   0.0000  -0.0475  -0.0251  -0.0000  -0.0047
 251 C_c :3d2-   0.0217  -0.0071   0.0000  -0.0227  -0.0032  -0.0000   0.0175
 252 C_c :3d1-  -0.0000   0.0000  -0.0865  -0.0000   0.0000   0.0014   0.0000
 253 C_c :3d0   -0.0198   0.0039   0.0000   0.0003  -0.0300  -0.0000  -0.0194
 254 C_c :3d1+   0.0000   0.0000   0.0179   0.0000  -0.0000   0.0193  -0.0000
 255 C_c :3d2+  -0.0152   0.0202   0.0000  -0.0124   0.0168  -0.0000   0.0268
 256 C_c :3d2-   0.0187  -0.0006   0.0000  -0.0062   0.0586  -0.0000  -0.0428
 257 C_c :3d1-   0.0000  -0.0000   0.0414   0.0000  -0.0000  -0.0365  -0.0000
 258 C_c :3d0    0.0032   0.0016  -0.0000   0.0068   0.0174   0.0000  -0.0124
 259 C_c :3d1+  -0.0000  -0.0000  -0.0026   0.0000  -0.0000   0.0253  -0.0000
 260 C_c :3d2+  -0.0034   0.0142   0.0000  -0.0098  -0.0234  -0.0000   0.0313
 275 C_c :4f3-   0.0453   0.0455  -0.0000   0.0058  -0.0084  -0.0000   0.0064
 276 C_c :4f2-   0.0000  -0.0000  -0.0225   0.0000  -0.0000  -0.0263   0.0000
 278 C_c :4f0   -0.0000  -0.0000   0.0150   0.0000  -0.0000   0.0171  -0.0000
 280 C_c :4f2+   0.0000   0.0000  -0.0282  -0.0000   0.0000  -0.0111   0.0000
 281 C_c :4f3+  -0.0090   0.0162  -0.0000   0.0034   0.0067   0.0000  -0.0132
 282 C_c :4f3-   0.0505   0.0491   0.0000   0.0167   0.0124  -0.0000  -0.0622
 283 C_c :4f2-  -0.0000   0.0000   0.0112  -0.0000   0.0000  -0.0105  -0.0000
 284 C_c :4f1-  -0.0007  -0.0006   0.0000  -0.0015   0.0116  -0.0000  -0.0087
 285 C_c :4f0   -0.0000  -0.0000   0.0055  -0.0000   0.0000   0.0274   0.0000
 286 C_c :4f1+   0.0066  -0.0085   0.0000   0.0014   0.0151  -0.0000  -0.0113
 287 C_c :4f2+  -0.0000  -0.0000  -0.0104   0.0000   0.0000  -0.0476   0.0000
 288 C_c :4f3+  -0.0079   0.0259   0.0000  -0.0071   0.0325  -0.0000  -0.0114
 307 C_c :5g4-  -0.0173  -0.0002  -0.0000  -0.0028   0.0007   0.0000   0.0017
 314 C_c :5g3+  -0.0000  -0.0000   0.0168   0.0000  -0.0000   0.0052  -0.0000
 315 C_c :5g4+  -0.0201  -0.0305  -0.0000  -0.0081   0.0074   0.0000  -0.0005
 317 C_d :1s    -0.0681  -0.0031  -0.0000   0.0400  -0.0370  -0.0000   0.0081
 319 C_d :1s     0.0124   0.0215   0.0000   0.0885  -0.0050  -0.0000   0.0306
 320 C_d :1s    -0.0064  -0.0062   0.0000   0.0168   0.0254  -0.0000   0.0205
 321 C_d :1s    -0.0067  -0.0139  -0.0000   0.0105   0.0351   0.0000   0.0242
 322 C_d :1s     0.0005  -0.0245  -0.0000  -0.0212   0.0433   0.0000   0.0382
 323 C_d :2px   -0.2450   0.0003  -0.0000   0.1743   0.0887   0.0000   0.0063
 324 C_d :2py   -0.1708  -0.2320   0.0000  -0.3762   0.0664  -0.0000  -0.0606
 325 C_d :2pz    0.0000  -0.0000   0.0938  -0.0000  -0.0000   0.4361   0.0000
 329 C_d :2px   -0.0012  -0.0301  -0.0000   0.0115   0.0107   0.0000  -0.0067
 330 C_d :2py    0.0107  -0.0021  -0.0000  -0.0218   0.0119   0.0000  -0.0043
 331 C_d :2pz    0.0000  -0.0000   0.0105  -0.0000   0.0000   0.0301   0.0000
 332 C_d :2px    0.0276   0.0160  -0.0000  -0.0126  -0.0559   0.0000  -0.0076
 333 C_d :2py   -0.0116  -0.0176  -0.0000   0.0260  -0.0108   0.0000   0.0010
 334 C_d :2pz    0.0000   0.0000   0.0409   0.0000  -0.0000   0.0241   0.0000
 335 C_d :2px   -0.0220   0.0038  -0.0000  -0.0125  -0.0723   0.0000   0.0152
 336 C_d :2py    0.0453   0.0249   0.0000   0.0049   0.0711  -0.0000  -0.0445
 337 C_d :2pz    0.0000  -0.0000  -0.0299  -0.0000   0.0000   0.0365   0.0000
 338 C_d :2px   -0.0060  -0.0051  -0.0000  -0.0189  -0.0155   0.0000  -0.0013
 339 C_d :2py    0.0062  -0.0072  -0.0000  -0.0097  -0.0263   0.0000  -0.0014
 346 C_d :3d2-   0.0101   0.0062  -0.0000   0.0200  -0.0018   0.0000   0.0027
 350 C_d :3d2+  -0.0112   0.0047  -0.0000   0.0096   0.0043   0.0000   0.0021
 351 C_d :3d2-  -0.0253  -0.0215   0.0000  -0.0794  -0.0083  -0.0000   0.0123
 352 C_d :3d1-  -0.0000  -0.0000   0.0065   0.0000  -0.0000  -0.0348  -0.0000
 353 C_d :3d0    0.0083   0.0108  -0.0000   0.0144   0.0036   0.0000   0.0077
 354 C_d :3d1+  -0.0000  -0.0000   0.0260   0.0000  -0.0000   0.0093  -0.0000
 355 C_d :3d2+   0.0100  -0.0365   0.0000  -0.0431  -0.0157  -0.0000  -0.0145
 356 C_d :3d2-   0.0087   0.0032   0.0000  -0.0223   0.0222  -0.0000  -0.0223
 357 C_d :3d1-  -0.0000   0.0000   0.0548  -0.0000   0.0000   0.0150  -0.0000
 358 C_d :3d0    0.0058  -0.0019   0.0000   0.0046   0.0184   0.0000   0.0121
 359 C_d :3d1+   0.0000   0.0000   0.0030   0.0000  -0.0000  -0.0167  -0.0000
 360 C_d :3d2+  -0.0272  -0.0152  -0.0000  -0.0271  -0.0161   0.0000   0.0250
 361 C_d :3d2-  -0.0081   0.0110   0.0000  -0.0110   0.0078  -0.0000  -0.0037
 362 C_d :3d1-   0.0000   0.0000  -0.0242   0.0000   0.0000   0.0169   0.0000
 365 C_d :3d2+   0.0109  -0.0171  -0.0000  -0.0222  -0.0080   0.0000  -0.0048
 380 C_d :4f3-  -0.0361   0.0425  -0.0000  -0.0100   0.0074   0.0000  -0.0029
 381 C_d :4f2-   0.0000   0.0000  -0.0125  -0.0000  -0.0000  -0.0389   0.0000
 382 C_d :4f1-  -0.0144  -0.0066  -0.0000   0.0004  -0.0007   0.0000  -0.0043
 383 C_d :4f0   -0.0000  -0.0000   0.0073  -0.0000   0.0000   0.0253  -0.0000
 384 C_d :4f1+  -0.0103   0.0027  -0.0000   0.0027   0.0168   0.0000   0.0039
 385 C_d :4f2+   0.0000   0.0000   0.0113   0.0000  -0.0000  -0.0314  -0.0000
 386 C_d :4f3+   0.0116   0.0164   0.0000  -0.0123  -0.0067  -0.0000   0.0061
 387 C_d :4f3-  -0.0377   0.0383  -0.0000  -0.0158   0.0478   0.0000   0.0307
 388 C_d :4f2-  -0.0000  -0.0000  -0.0156   0.0000   0.0000   0.0121  -0.0000
 390 C_d :4f0    0.0000   0.0000   0.0036  -0.0000   0.0000   0.0275  -0.0000
 391 C_d :4f1+   0.0050  -0.0079  -0.0000   0.0056   0.0221   0.0000   0.0056
 392 C_d :4f2+  -0.0000   0.0000  -0.0385  -0.0000   0.0000   0.0025  -0.0000
 393 C_d :4f3+  -0.0105   0.0037  -0.0000  -0.0022  -0.0287   0.0000   0.0007
 412 C_d :5g4-  -0.0149   0.0038   0.0000  -0.0001   0.0102  -0.0000  -0.0036
 419 C_d :5g3+   0.0000   0.0000   0.0017   0.0000  -0.0000  -0.0159   0.0000
 420 C_d :5g4+  -0.0212   0.0292  -0.0000  -0.0105   0.0124   0.0000   0.0047
 422 C_e :1s     0.0863   0.0134   0.0000   0.0847   0.0275  -0.0000  -0.0511
 424 C_e :1s    -0.0021   0.0437   0.0000   0.0601   0.0645  -0.0000  -0.0993
 425 C_e :1s     0.0004   0.0019  -0.0000   0.0139  -0.0004   0.0000  -0.0036
 426 C_e :1s    -0.0116  -0.0024  -0.0000   0.0055  -0.0059   0.0000   0.0188
 427 C_e :1s     0.0135  -0.0383  -0.0000  -0.0112   0.0029   0.0000  -0.0142
 428 C_e :2px    0.3771  -0.2120  -0.0000  -0.0394  -0.1458  -0.0000   0.0267
 429 C_e :2py    0.0765   0.3286  -0.0000   0.3164  -0.0486   0.0000   0.0821
 430 C_e :2pz   -0.0000  -0.0000   0.0451   0.0000  -0.0000   0.3790  -0.0000
 434 C_e :2px   -0.0057   0.0067  -0.0000   0.0155  -0.0150   0.0000   0.0067
 435 C_e :2py    0.0124   0.0080   0.0000   0.0285  -0.0098  -0.0000  -0.0162
 436 C_e :2pz    0.0000  -0.0000  -0.0015   0.0000  -0.0000   0.0344  -0.0000
 437 C_e :2px   -0.0257   0.0234   0.0000   0.0059   0.0345  -0.0000  -0.0013
 438 C_e :2py   -0.0293  -0.0028   0.0000  -0.0136   0.0739  -0.0000  -0.0056
 439 C_e :2pz    0.0000   0.0000   0.0950   0.0000  -0.0000  -0.0267  -0.0000
 440 C_e :2px   -0.0072   0.0155   0.0000  -0.0085   0.0095  -0.0000   0.0374
 441 C_e :2py    0.0037  -0.0375  -0.0000   0.0013  -0.0430   0.0000  -0.0096
 442 C_e :2pz   -0.0000  -0.0000  -0.0196   0.0000  -0.0000   0.0117  -0.0000
 443 C_e :2px    0.0134  -0.0112   0.0000  -0.0038   0.0119  -0.0000   0.0179
 444 C_e :2py    0.0078  -0.0059   0.0000  -0.0048  -0.0302  -0.0000  -0.0100
 451 C_e :3d2-  -0.0015   0.0134  -0.0000   0.0131  -0.0030   0.0000   0.0017
 455 C_e :3d2+  -0.0136   0.0090  -0.0000   0.0060   0.0053   0.0000  -0.0023
 456 C_e :3d2-   0.0237  -0.0451  -0.0000  -0.0407   0.0139   0.0000   0.0051
 457 C_e :3d1-  -0.0000  -0.0000   0.0059   0.0000  -0.0000   0.0335  -0.0000
 458 C_e :3d0   -0.0096   0.0153  -0.0000   0.0112   0.0116   0.0000  -0.0117
 459 C_e :3d1+  -0.0000  -0.0000   0.0170   0.0000  -0.0000  -0.0161  -0.0000
 460 C_e :3d2+   0.0016  -0.0472   0.0000  -0.0304   0.0160  -0.0000  -0.0364
 461 C_e :3d2-   0.0410  -0.0096   0.0000  -0.0081   0.0776  -0.0000   0.0125
 462 C_e :3d1-   0.0000   0.0000   0.0612   0.0000  -0.0000  -0.0577   0.0000
 463 C_e :3d0   -0.0009   0.0140  -0.0000   0.0159   0.0257   0.0000  -0.0060
 464 C_e :3d1+  -0.0000  -0.0000  -0.0552  -0.0000   0.0000   0.0385  -0.0000
 465 C_e :3d2+  -0.0144  -0.0003   0.0000  -0.0301  -0.0603  -0.0000   0.0155
 466 C_e :3d2-   0.0201  -0.0042   0.0000  -0.0039   0.0323  -0.0000   0.0479
 468 C_e :3d0   -0.0086  -0.0027  -0.0000   0.0014  -0.0330   0.0000   0.0130
 470 C_e :3d2+  -0.0168  -0.0063   0.0000   0.0027  -0.0122  -0.0000   0.0339
 485 C_e :4f3-  -0.0036   0.0003   0.0000  -0.0195  -0.0225  -0.0000  -0.0127
 486 C_e :4f2-  -0.0000  -0.0000   0.0121   0.0000  -0.0000  -0.0402  -0.0000
 488 C_e :4f0   -0.0000  -0.0000  -0.0066  -0.0000   0.0000   0.0235   0.0000
 490 C_e :4f2+   0.0000   0.0000   0.0010  -0.0000   0.0000  -0.0240   0.0000
 491 C_e :4f3+   0.0237  -0.0077  -0.0000  -0.0053  -0.0281   0.0000   0.0566
 492 C_e :4f3-   0.0197  -0.0014  -0.0000  -0.0110   0.0075   0.0000  -0.0678
 493 C_e :4f2-  -0.0000  -0.0000  -0.0319  -0.0000   0.0000  -0.0011  -0.0000
 494 C_e :4f1-   0.0097  -0.0031  -0.0000   0.0076   0.0201   0.0000   0.0056
 495 C_e :4f0    0.0000   0.0000   0.0288   0.0000  -0.0000   0.0080   0.0000
 497 C_e :4f2+  -0.0000   0.0000  -0.0246  -0.0000   0.0000   0.0117   0.0000
 498 C_e :4f3+   0.0227  -0.0026   0.0000   0.0111   0.0961   0.0000   0.0292
 517 C_e :5g4-   0.0223  -0.0092   0.0000   0.0017   0.0081  -0.0000   0.0108
 523 C_e :5g2+   0.0038  -0.0040  -0.0000   0.0049  -0.0115   0.0000  -0.0083
 524 C_e :5g3+  -0.0000   0.0000  -0.0051  -0.0000   0.0000   0.0144   0.0000
 525 C_e :5g4+  -0.0143   0.0034  -0.0000   0.0111   0.0076   0.0000   0.0035
 527 C_f :1s    -0.0866   0.0020  -0.0000  -0.0025  -0.1075   0.0000  -0.0092
 528 C_f :1s     0.0008   0.0002  -0.0000   0.0004   0.0151   0.0000  -0.0009
 529 C_f :1s     0.0291   0.0276   0.0000   0.0070  -0.1196   0.0000   0.0830
 530 C_f :1s    -0.0010   0.0113  -0.0000   0.0072  -0.0212   0.0000  -0.0136
 531 C_f :1s    -0.0066  -0.0038   0.0000   0.0103   0.0226   0.0000   0.0033
 532 C_f :1s     0.0007  -0.0247   0.0000   0.0029   0.0174  -0.0000  -0.0129
 533 C_f :2px   -0.3112   0.2353   0.0000   0.1028   0.1854  -0.0000  -0.0414
 534 C_f :2py    0.1442  -0.1350  -0.0000  -0.0521   0.2628   0.0000   0.1392
 535 C_f :2pz   -0.0000  -0.0000   0.0248   0.0000  -0.0000   0.2955  -0.0000
 539 C_f :2px    0.0212   0.0201  -0.0000   0.0147  -0.0108   0.0000   0.0487
 540 C_f :2py    0.0274  -0.0216  -0.0000  -0.0116   0.0476   0.0000   0.0387
 541 C_f :2pz   -0.0000  -0.0000  -0.0027   0.0000  -0.0000   0.0203  -0.0000
 542 C_f :2px    0.0411  -0.0545  -0.0000  -0.0267  -0.1083   0.0000   0.0518
 543 C_f :2py   -0.0080   0.0149   0.0000   0.0159  -0.0114  -0.0000  -0.0190
 544 C_f :2pz   -0.0000  -0.0000   0.0270   0.0000  -0.0000   0.0082  -0.0000
 545 C_f :2px    0.0176  -0.0186  -0.0000  -0.0181  -0.0240   0.0000  -0.0047
 546 C_f :2py    0.0015   0.0136   0.0000   0.0031  -0.0126  -0.0000  -0.0338
 547 C_f :2pz    0.0000   0.0000  -0.0080   0.0000  -0.0000  -0.0386   0.0000
 548 C_f :2px   -0.0127   0.0154  -0.0000   0.0237   0.0154  -0.0000  -0.0196
 549 C_f :2py   -0.0135   0.0128   0.0000   0.0121   0.0225  -0.0000  -0.0009
 556 C_f :3d2-  -0.0029   0.0116   0.0000   0.0080  -0.0125  -0.0000  -0.0036
 561 C_f :3d2-   0.0117  -0.0219  -0.0000  -0.0235  -0.0107   0.0000  -0.0295
 562 C_f :3d1-  -0.0000  -0.0000   0.0024  -0.0000   0.0000  -0.0152  -0.0000
 563 C_f :3d0    0.0045   0.0060   0.0000  -0.0022   0.0057  -0.0000   0.0202
 564 C_f :3d1+  -0.0000  -0.0000   0.0054   0.0000  -0.0000   0.0121  -0.0000
 565 C_f :3d2+   0.0022   0.0027  -0.0000   0.0014   0.0229   0.0000  -0.0063
 566 C_f :3d2-  -0.0300   0.0012  -0.0000  -0.0253  -0.0474  -0.0000  -0.0059
 567 C_f :3d1-  -0.0000  -0.0000  -0.0235  -0.0000   0.0000   0.0523  -0.0000
 568 C_f :3d0    0.0117   0.0057   0.0000   0.0078   0.0005  -0.0000   0.0051
 569 C_f :3d1+  -0.0000  -0.0000  -0.0869  -0.0000   0.0000  -0.0019  -0.0000
 570 C_f :3d2+   0.0044  -0.0041   0.0000  -0.0133   0.0436  -0.0000   0.0093
 571 C_f :3d2-   0.0026  -0.0031  -0.0000   0.0056   0.0359   0.0000  -0.0308
 573 C_f :3d0    0.0062   0.0046  -0.0000   0.0011   0.0246   0.0000  -0.0100
 575 C_f :3d2+   0.0145   0.0013   0.0000   0.0039   0.0062  -0.0000  -0.0240
 583 C_f :4f3-  -0.0008   0.0007  -0.0000  -0.0006  -0.0031   0.0000   0.0137
 590 C_f :4f3-  -0.0055  -0.0211   0.0000  -0.0257  -0.0243  -0.0000   0.0252
 591 C_f :4f2-   0.0000   0.0000   0.0060   0.0000   0.0000  -0.0220   0.0000
 593 C_f :4f0    0.0000   0.0000  -0.0056  -0.0000   0.0000   0.0138   0.0000
 594 C_f :4f1+   0.0006   0.0034   0.0000   0.0020   0.0130  -0.0000   0.0075
 596 C_f :4f3+   0.0062  -0.0118  -0.0000  -0.0152  -0.0426   0.0000   0.0321
 597 C_f :4f3-  -0.0072  -0.0029  -0.0000  -0.0288  -0.0516   0.0000  -0.0263
 598 C_f :4f2-   0.0000   0.0000  -0.0205  -0.0000   0.0000  -0.0017   0.0000
 599 C_f :4f1-  -0.0097   0.0036   0.0000  -0.0013  -0.0035  -0.0000   0.0103
 602 C_f :4f2+  -0.0000  -0.0000  -0.0284  -0.0000   0.0000  -0.0196  -0.0000
 603 C_f :4f3+  -0.0268  -0.0152   0.0000  -0.0193  -0.0809  -0.0000   0.0018
 621 C_f :5g4+  -0.0002   0.0004  -0.0000  -0.0002  -0.0012   0.0000   0.0108
 622 C_f :5g4-  -0.0026  -0.0031   0.0000  -0.0057   0.0320  -0.0000   0.0002
 630 C_f :5g4+  -0.0020  -0.0120   0.0000  -0.0141  -0.0073  -0.0000   0.0276
 632 N_a :1s     0.0183  -0.0421  -0.0000   0.0268  -0.0063   0.0000   0.0010
 634 N_a :1s    -0.0104  -0.0102   0.0000   0.0046   0.0022  -0.0000  -0.0020
 635 N_a :1s    -0.0523  -0.0239   0.0000   0.0051  -0.0113  -0.0000   0.0224
 636 N_a :1s     0.0150  -0.0082  -0.0000   0.0158  -0.0236   0.0000   0.0048
 637 N_a :1s     0.0208  -0.0158  -0.0000   0.0150   0.0075   0.0000  -0.0082
 638 N_a :2px   -0.1892  -0.0041   0.0000  -0.0259   0.0126  -0.0000  -0.0021
 639 N_a :2py    0.0680   0.1204   0.0000  -0.0406   0.0069  -0.0000  -0.0004
 640 N_a :2pz    0.0000  -0.0000   0.6438   0.0000  -0.0000  -0.2837  -0.0000
 646 N_a :2pz   -0.0000   0.0000   0.0120  -0.0000   0.0000  -0.0050   0.0000
 647 N_a :2px    0.0273   0.0051   0.0000  -0.0040  -0.0129  -0.0000   0.0174
 648 N_a :2py   -0.0109   0.0217   0.0000  -0.0029   0.0123  -0.0000  -0.0247
 649 N_a :2pz    0.0000  -0.0000   0.0779   0.0000  -0.0000  -0.0437  -0.0000
 650 N_a :2px    0.0125   0.0050   0.0000  -0.0032   0.0083  -0.0000  -0.0380
 651 N_a :2py    0.0088  -0.0063   0.0000   0.0008   0.0273  -0.0000   0.0154
 652 N_a :2pz    0.0000  -0.0000   0.0546   0.0000  -0.0000  -0.0237  -0.0000
 653 N_a :2px    0.0001  -0.0013   0.0000   0.0111   0.0116  -0.0000  -0.0102
 655 N_a :2pz   -0.0000   0.0000  -0.0101  -0.0000   0.0000   0.0008  -0.0000
 667 N_a :3d1-  -0.0000   0.0000  -0.0141  -0.0000   0.0000   0.0047   0.0000
 669 N_a :3d1+  -0.0000   0.0000  -0.0117  -0.0000   0.0000   0.0031   0.0000
 670 N_a :3d2+  -0.0141  -0.0075  -0.0000   0.0020   0.0008   0.0000  -0.0029
 672 N_a :3d1-  -0.0000  -0.0000  -0.0337  -0.0000   0.0000   0.0137   0.0000
 673 N_a :3d0   -0.0021   0.0043   0.0000   0.0022   0.0008  -0.0000  -0.0140
 674 N_a :3d1+  -0.0000   0.0000  -0.0277  -0.0000   0.0000   0.0071   0.0000
 675 N_a :3d2+   0.0233   0.0027  -0.0000  -0.0039   0.0042   0.0000   0.0110
 676 N_a :3d2-  -0.0039  -0.0027  -0.0000  -0.0015  -0.0012   0.0000  -0.0202
 677 N_a :3d1-   0.0000   0.0000  -0.0137  -0.0000   0.0000  -0.0045   0.0000
 679 N_a :3d1+   0.0000   0.0000  -0.0158  -0.0000   0.0000  -0.0021   0.0000
 680 N_a :3d2+   0.0114   0.0020  -0.0000   0.0041   0.0135   0.0000  -0.0137
 702 N_a :4f3-  -0.0125  -0.0040   0.0000  -0.0094  -0.0133  -0.0000   0.0181
 705 N_a :4f0    0.0000  -0.0000   0.0118   0.0000  -0.0000  -0.0105  -0.0000
 708 N_a :4f3+   0.0077   0.0106   0.0000   0.0032   0.0059  -0.0000   0.0025
 737 N_b :1s     0.0145   0.0263  -0.0000   0.0209  -0.0254  -0.0000  -0.0052
 739 N_b :1s    -0.0053   0.0101   0.0000   0.0060   0.0026  -0.0000   0.0150
 740 N_b :1s    -0.0078   0.0538  -0.0000   0.0352   0.0715   0.0000   0.0419
 741 N_b :1s    -0.0149  -0.0024   0.0000   0.0101  -0.0364  -0.0000  -0.0224
 742 N_b :1s    -0.0379   0.0278  -0.0000   0.0203  -0.1122   0.0000  -0.0244
 743 N_b :2px    0.0830   0.0055  -0.0000   0.0262  -0.1270   0.0000  -0.1126
 744 N_b :2py   -0.0500   0.0915   0.0000   0.0465  -0.2516  -0.0000  -0.0152
 745 N_b :2pz   -0.0000  -0.0000  -0.0082  -0.0000   0.0000  -0.0476  -0.0000
 749 N_b :2px   -0.0138   0.0090   0.0000   0.0050   0.0144  -0.0000  -0.0066
 750 N_b :2py    0.0055  -0.0058  -0.0000  -0.0032   0.0022   0.0000   0.0130
 752 N_b :2px   -0.0211   0.0123  -0.0000   0.0005  -0.0612   0.0000  -0.0422
 753 N_b :2py   -0.0470  -0.0142  -0.0000  -0.0265  -0.2096   0.0000  -0.0567
 754 N_b :2pz   -0.0000  -0.0000  -0.0228  -0.0000   0.0000   0.0571  -0.0000
 755 N_b :2px    0.0290  -0.0183  -0.0000   0.0139  -0.0148   0.0000  -0.1939
 756 N_b :2py   -0.0236   0.0071  -0.0000  -0.0245  -0.1484   0.0000   0.1271
 757 N_b :2pz   -0.0000  -0.0000   0.0242   0.0000   0.0000   0.0508  -0.0000
 758 N_b :2px    0.0105  -0.0179  -0.0000  -0.0193  -0.0392   0.0000  -0.0008
 759 N_b :2py    0.0055  -0.0109  -0.0000  -0.0102  -0.0254   0.0000   0.0029
 766 N_b :3d2-  -0.0063   0.0012  -0.0000  -0.0013  -0.0327   0.0000   0.0034
 770 N_b :3d2+  -0.0057   0.0034  -0.0000  -0.0004   0.0098   0.0000   0.0260
 771 N_b :3d2-   0.0016   0.0055  -0.0000   0.0050   0.0248   0.0000  -0.0181
 775 N_b :3d2+  -0.0073   0.0023  -0.0000   0.0028   0.0096   0.0000  -0.0411
 776 N_b :3d2-   0.0203   0.0222   0.0000   0.0260   0.1395  -0.0000  -0.0561
 778 N_b :3d0    0.0106   0.0010  -0.0000   0.0022   0.0252   0.0000  -0.0011
 780 N_b :3d2+  -0.0268   0.0071   0.0000   0.0005  -0.0448  -0.0000  -0.0881
 781 N_b :3d2-  -0.0066   0.0017   0.0000  -0.0006  -0.0157  -0.0000  -0.0144
 783 N_b :3d0    0.0036  -0.0018  -0.0000  -0.0013  -0.0246   0.0000  -0.0088
 785 N_b :3d2+  -0.0115   0.0045   0.0000   0.0007   0.0158  -0.0000   0.0128
 793 N_b :4f3-  -0.0005   0.0009  -0.0000   0.0012   0.0040   0.0000  -0.0129
 800 N_b :4f3-  -0.0024  -0.0044  -0.0000  -0.0076  -0.0038   0.0000   0.0276
 806 N_b :4f3+  -0.0041   0.0014  -0.0000  -0.0011  -0.0223   0.0000  -0.0008
 807 N_b :4f3-   0.0026   0.0032  -0.0000   0.0064   0.0146  -0.0000  -0.0261
 813 N_b :4f3+  -0.0108  -0.0088  -0.0000  -0.0062  -0.0863   0.0000  -0.0305
 832 N_b :5g4-   0.0004   0.0003   0.0000  -0.0013  -0.0059   0.0000   0.0117
 842 O_a :1s    -0.0329   0.0335   0.0000   0.0189  -0.0114  -0.0000  -0.0047
 845 O_a :1s    -0.0179   0.0175  -0.0000   0.0156  -0.0218   0.0000  -0.1001
 846 O_a :1s    -0.0247   0.0025  -0.0000  -0.0032  -0.1652   0.0000  -0.0999
 847 O_a :1s    -0.0126   0.0174   0.0000   0.0040   0.0236  -0.0000  -0.0291
 848 O_a :2px   -0.0428   0.0648   0.0000  -0.0031   0.2030  -0.0000   0.7239
 849 O_a :2py    0.1079  -0.0453  -0.0000  -0.0195   0.4059   0.0000   0.3260
 850 O_a :2pz    0.0000   0.0000  -0.0100  -0.0000   0.0000  -0.0858   0.0000
 854 O_a :2px    0.0007  -0.0014   0.0000  -0.0016   0.0022  -0.0000   0.0151
 857 O_a :2px   -0.0115   0.0151   0.0000  -0.0013   0.0726  -0.0000   0.1855
 858 O_a :2py    0.0144  -0.0042  -0.0000  -0.0001   0.0702   0.0000   0.0458
 859 O_a :2pz    0.0000   0.0000  -0.0001   0.0000   0.0000  -0.0164   0.0000
 860 O_a :2px   -0.0509   0.0032  -0.0000  -0.0076  -0.1025   0.0000   0.1413
 861 O_a :2py    0.0070   0.0025  -0.0000   0.0128   0.0609   0.0000  -0.0393
 862 O_a :2pz    0.0000   0.0000  -0.0120  -0.0000   0.0000  -0.0299   0.0000
 876 O_a :3d2-  -0.0044   0.0038   0.0000   0.0003  -0.0000  -0.0000   0.0202
 880 O_a :3d2+  -0.0045  -0.0004   0.0000  -0.0002  -0.0211  -0.0000  -0.0229
 881 O_a :3d2-  -0.0097   0.0086   0.0000  -0.0020   0.0144  -0.0000   0.0775
 883 O_a :3d0   -0.0062   0.0045   0.0000   0.0026  -0.0039  -0.0000  -0.0160
 885 O_a :3d2+  -0.0115   0.0041   0.0000   0.0011  -0.0482  -0.0000  -0.0391
 886 O_a :3d2-  -0.0125   0.0015   0.0000  -0.0019  -0.0265  -0.0000   0.0340
 888 O_a :3d0   -0.0041   0.0012   0.0000  -0.0017  -0.0137  -0.0000   0.0064
 905 O_a :4f3-  -0.0023  -0.0003  -0.0000  -0.0003  -0.0110   0.0000  -0.0090
 912 O_a :4f3-  -0.0025  -0.0001  -0.0000   0.0003  -0.0139   0.0000  -0.0135
 918 O_a :4f3+   0.0012  -0.0017  -0.0000   0.0002  -0.0006   0.0000  -0.0133
 947 O_b :1s     0.0161   0.0050  -0.0000   0.0064  -0.0098   0.0000  -0.0035
 950 O_b :1s     0.0249  -0.0092   0.0000  -0.0068  -0.0449  -0.0000   0.0316
 951 O_b :1s    -0.0001  -0.0313  -0.0000  -0.0330  -0.2176   0.0000  -0.0040
 952 O_b :1s     0.0390  -0.0127  -0.0000  -0.0270  -0.0276   0.0000   0.0585
 953 O_b :2px   -0.0764   0.0257   0.0000  -0.0058   0.2246  -0.0000   0.1664
 954 O_b :2py    0.0920   0.0466   0.0000   0.0882   0.7060  -0.0000  -0.5192
 955 O_b :2pz    0.0000   0.0000  -0.0111  -0.0000  -0.0000  -0.1154   0.0000
 962 O_b :2px   -0.0133   0.0006   0.0000  -0.0056   0.0085  -0.0000   0.0389
 963 O_b :2py    0.0314   0.0112   0.0000   0.0256   0.1479  -0.0000  -0.0976
 964 O_b :2pz    0.0000   0.0000   0.0039   0.0000  -0.0000  -0.0200   0.0000
 965 O_b :2px   -0.0256   0.0081   0.0000  -0.0113   0.0248  -0.0000   0.1271
 966 O_b :2py    0.0226  -0.0173   0.0000   0.0036   0.0510  -0.0000  -0.1430
 967 O_b :2pz    0.0000  -0.0000  -0.0084  -0.0000  -0.0000  -0.0113   0.0000
 968 O_b :2px    0.0020   0.0019  -0.0000  -0.0008   0.0068   0.0000   0.0107
 981 O_b :3d2-   0.0056   0.0020   0.0000   0.0042   0.0288  -0.0000  -0.0184
 985 O_b :3d2+  -0.0042   0.0026   0.0000   0.0007   0.0118  -0.0000   0.0068
 986 O_b :3d2-   0.0157   0.0053  -0.0000   0.0129   0.0706   0.0000  -0.0470
 990 O_b :3d2+  -0.0092  -0.0001   0.0000  -0.0030   0.0070  -0.0000   0.0202
 991 O_b :3d2-   0.0064  -0.0041   0.0000   0.0013   0.0099  -0.0000  -0.0318
 993 O_b :3d0    0.0025  -0.0014  -0.0000   0.0004  -0.0041   0.0000  -0.0149
 995 O_b :3d2+  -0.0059   0.0025   0.0000  -0.0015   0.0088  -0.0000   0.0240
1010 O_b :4f3-   0.0012   0.0007   0.0000   0.0011   0.0147  -0.0000  -0.0032
1017 O_b :4f3-   0.0031   0.0010  -0.0000   0.0023   0.0188   0.0000  -0.0071
1051 H_a :1s     0.2808   0.3377   0.0000  -0.1303   0.0033  -0.0000   0.0002
1053 H_a :1s    -0.0516  -0.0377  -0.0000   0.0272   0.0190   0.0000  -0.0175
1054 H_a :1s    -0.0033  -0.0289   0.0000   0.0118   0.0473  -0.0000  -0.0364
1055 H_a :1s    -0.0174  -0.0008  -0.0000  -0.0015   0.0229   0.0000   0.0251
1056 H_a :1s     0.0002   0.0042   0.0000  -0.0075  -0.0093  -0.0000  -0.0219
1066 H_a :2px   -0.0393  -0.0157  -0.0000   0.0256   0.0049   0.0000  -0.0172
1067 H_a :2py   -0.0055   0.0060  -0.0000   0.0182  -0.0122   0.0000  -0.0003
1068 H_a :2pz    0.0000  -0.0000   0.0157   0.0000  -0.0000  -0.0509   0.0000
1069 H_a :2px   -0.0086   0.0055   0.0000  -0.0106  -0.0144  -0.0000   0.0489
1070 H_a :2py   -0.0061   0.0030  -0.0000  -0.0003   0.0114   0.0000   0.0427
1071 H_a :2pz   -0.0000  -0.0000  -0.0294  -0.0000   0.0000   0.0534  -0.0000
1087 H_a :3d2-  -0.0008  -0.0040  -0.0000   0.0033   0.0045   0.0000   0.0130
1089 H_a :3d0    0.0033   0.0042   0.0000  -0.0028  -0.0029  -0.0000  -0.0111
1090 H_a :3d1+  -0.0000   0.0000   0.0102  -0.0000   0.0000   0.0078  -0.0000
1113 H_b :1s     0.1240   0.4624  -0.0000  -0.3292   0.0042   0.0000  -0.0065
1114 H_b :1s    -0.0036  -0.0142   0.0000   0.0099   0.0001  -0.0000  -0.0003
1115 H_b :1s     0.0274   0.0039   0.0000   0.0082  -0.0019  -0.0000  -0.0437
1116 H_b :1s     0.0169   0.0049   0.0000   0.0103   0.0008  -0.0000   0.0097
1117 H_b :1s     0.0028   0.0019   0.0000  -0.0011  -0.0220  -0.0000  -0.0139
1118 H_b :1s    -0.0048   0.0149  -0.0000   0.0138  -0.0140   0.0000   0.0160
1125 H_b :2px    0.0022   0.0128   0.0000  -0.0103   0.0041  -0.0000  -0.0071
1126 H_b :2py   -0.0130  -0.0233  -0.0000   0.0097   0.0032   0.0000   0.0115
1128 H_b :2px    0.0564   0.0189   0.0000   0.0120   0.0184  -0.0000  -0.0233
1129 H_b :2py   -0.0027  -0.0020   0.0000   0.0084   0.0095  -0.0000   0.0286
1130 H_b :2pz    0.0000   0.0000  -0.0153   0.0000  -0.0000  -0.0148   0.0000
1131 H_b :2px   -0.0141   0.0053   0.0000   0.0085  -0.0063  -0.0000  -0.0127
1132 H_b :2py   -0.0001   0.0168  -0.0000   0.0089  -0.0038   0.0000   0.0323
1133 H_b :2pz   -0.0000   0.0000  -0.0063  -0.0000   0.0000   0.0257  -0.0000
1149 H_b :3d2-   0.0059  -0.0020   0.0000   0.0034   0.0059  -0.0000  -0.0208
1151 H_b :3d0    0.0034   0.0116  -0.0000   0.0001  -0.0018   0.0000   0.0094
1152 H_b :3d1+   0.0000   0.0000  -0.0066  -0.0000   0.0000   0.0151   0.0000
1153 H_b :3d2+  -0.0079  -0.0126   0.0000  -0.0057  -0.0069  -0.0000   0.0080
1168 H_b :4f3-   0.0057   0.0023   0.0000   0.0024   0.0055  -0.0000  -0.0117
1172 H_b :4f1+  -0.0029  -0.0035  -0.0000  -0.0025   0.0034   0.0000   0.0138
1174 H_b :4f3+   0.0052   0.0044   0.0000   0.0000  -0.0119  -0.0000  -0.0070
1175 H_c :1s     0.1689   0.1321   0.0000  -0.0320  -0.0011  -0.0000   0.0010
1177 H_c :1s    -0.0346  -0.0434  -0.0000   0.0178   0.0022   0.0000  -0.0130
1178 H_c :1s    -0.0008  -0.0506  -0.0000  -0.0037   0.0149   0.0000  -0.0050
1179 H_c :1s    -0.0076  -0.0037  -0.0000  -0.0044  -0.0079   0.0000  -0.0214
1180 H_c :1s     0.0029  -0.0034   0.0000  -0.0069   0.0056  -0.0000  -0.0101
1189 H_c :2pz   -0.0000   0.0000   0.0201  -0.0000   0.0000  -0.0080   0.0000
1190 H_c :2px    0.0348   0.0201   0.0000   0.0048   0.0203  -0.0000   0.0159
1191 H_c :2py   -0.0249   0.0141   0.0000  -0.0077  -0.0123  -0.0000   0.0081
1192 H_c :2pz    0.0000  -0.0000   0.0488   0.0000  -0.0000  -0.0502  -0.0000
1193 H_c :2px    0.0116   0.0116   0.0000   0.0040   0.0030  -0.0000  -0.0062
1195 H_c :2pz   -0.0000  -0.0000   0.0153   0.0000  -0.0000  -0.0050  -0.0000
1215 H_c :3d2+  -0.0066  -0.0023   0.0000  -0.0015  -0.0051  -0.0000   0.0150
1237 H_d :1s    -0.2292  -0.0621   0.0000  -0.0043   0.0110  -0.0000  -0.0021
1239 H_d :1s     0.0570   0.0297  -0.0000  -0.0048   0.0051   0.0000  -0.0230
1240 H_d :1s    -0.0286  -0.0253  -0.0000  -0.0055  -0.0225   0.0000  -0.0348
1241 H_d :1s    -0.0226  -0.0338  -0.0000   0.0013   0.0115   0.0000   0.0043
1242 H_d :1s    -0.0012  -0.0016  -0.0000   0.0076   0.0025   0.0000   0.0107
1251 H_d :2pz    0.0000   0.0000   0.0274  -0.0000   0.0000  -0.0076   0.0000
1252 H_d :2px    0.0094   0.0026  -0.0000  -0.0131  -0.0014   0.0000   0.0204
1253 H_d :2py    0.0015   0.0098  -0.0000   0.0232   0.0278   0.0000  -0.0563
1254 H_d :2pz    0.0000  -0.0000   0.0474   0.0000  -0.0000  -0.0151  -0.0000
1256 H_d :2py   -0.0045  -0.0016   0.0000  -0.0057  -0.0017  -0.0000   0.0124
1257 H_d :2pz    0.0000   0.0000   0.0162   0.0000  -0.0000  -0.0040  -0.0000
1299 H_e :1s    -0.1250   0.1857  -0.0000  -0.4646   0.0116   0.0000  -0.0286
1300 H_e :1s     0.0045  -0.0052  -0.0000   0.0137  -0.0012   0.0000   0.0009
1301 H_e :1s     0.0134   0.0234  -0.0000  -0.0072  -0.0344   0.0000  -0.0055
1302 H_e :1s     0.0149   0.0031  -0.0000   0.0248   0.0467   0.0000  -0.0652
1303 H_e :1s     0.0032   0.0054   0.0000  -0.0016   0.0441  -0.0000   0.0202
1304 H_e :1s     0.0041  -0.0018  -0.0000   0.0071   0.0205   0.0000   0.0203
1311 H_e :2px    0.0088  -0.0159  -0.0000   0.0058   0.0048  -0.0000  -0.0002
1312 H_e :2py   -0.0041   0.0110  -0.0000  -0.0209  -0.0107   0.0000   0.0003
1314 H_e :2px    0.0006   0.0260  -0.0000   0.0022  -0.0013   0.0000  -0.0097
1315 H_e :2py   -0.0478   0.0161   0.0000  -0.0121  -0.0164  -0.0000   0.0521
1316 H_e :2pz   -0.0000  -0.0000  -0.0183  -0.0000   0.0000  -0.0292  -0.0000
1317 H_e :2px   -0.0203  -0.0084  -0.0000  -0.0097  -0.0212   0.0000  -0.0073
[...]

@ Singlet linear response function in a.u.

@ A operator, symmetry, frequency:   XDIPLEN    1 -0.019338
@ B operator, symmetry, frequency:   ZDIPLEN    1  0.019338

@ Value of linear response -<<A;B>>(omega):       0.000000000000

@ Singlet linear response function in a.u.

@ A operator, symmetry, frequency:   YDIPLEN    1 -0.019338
@ B operator, symmetry, frequency:   ZDIPLEN    1  0.019338

@ Value of linear response -<<A;B>>(omega):       0.000000000000

@ Singlet linear response function in a.u.

@ A operator, symmetry, frequency:   ZDIPLEN    1 -0.019338
@ B operator, symmetry, frequency:   ZDIPLEN    1  0.019338

@ Value of linear response -<<A;B>>(omega):      61.614706380634

@ Singlet linear response function in a.u.

@ A operator, symmetry, frequency:   XDIPLEN    1 -0.038675
@ B operator, symmetry, frequency:   ZDIPLEN    1  0.038675

@ Value of linear response -<<A;B>>(omega):       0.000000000000

@ Singlet linear response function in a.u.

@ A operator, symmetry, frequency:   YDIPLEN    1 -0.038675
@ B operator, symmetry, frequency:   ZDIPLEN    1  0.038675

@ Value of linear response -<<A;B>>(omega):      -0.000000000000

@ Singlet linear response function in a.u.

@ A operator, symmetry, frequency:   ZDIPLEN    1 -0.038675
@ B operator, symmetry, frequency:   ZDIPLEN    1  0.038675

@ Value of linear response -<<A;B>>(omega):      61.850842181761


  Results from quadratic response calculation
 --------------------------------------------

@ B-freq = 0.000000  C-freq = 0.000000     beta(X;X,X) =   1321.45139191
@ B-freq = 0.000000  C-freq = 0.000000     beta(Y;X,X) =   1618.32182756
@ B-freq = 0.000000  C-freq = 0.000000     beta(Z;X,X) =      0.00000000
@ B-freq = 0.019338  C-freq = 0.000000     beta(X;X,X) =   1379.41481892
@ B-freq = 0.019338  C-freq = 0.000000     beta(Y;X,X) =   1664.46351318
@ B-freq = 0.019338  C-freq = 0.000000     beta(Z;X,X) =      0.00000000
@ B-freq = 0.038675  C-freq = 0.000000     beta(X;X,X) =   1573.31289552
@ B-freq = 0.038675  C-freq = 0.000000     beta(Y;X,X) =   1816.30922344
@ B-freq = 0.038675  C-freq = 0.000000     beta(Z;X,X) =      0.00000000
@ B-freq = 0.000000  C-freq = 0.000000     beta(X;Y,X) = beta(Y,X,X)
@ B-freq = 0.000000  C-freq = 0.000000     beta(X;Y,X) =   1618.32187612
@ B-freq = 0.000000  C-freq = 0.000000     beta(Y;Y,X) =   1292.77625477
@ B-freq = 0.000000  C-freq = 0.000000     beta(Z;Y,X) =      0.00000000
@ B-freq = 0.019338  C-freq = 0.000000     beta(X;Y,X) =   1664.46356383
@ B-freq = 0.019338  C-freq = 0.000000     beta(Y;Y,X) =   1323.80032687
@ B-freq = 0.019338  C-freq = 0.000000     beta(Z;Y,X) =      0.00000000
@ B-freq = 0.038675  C-freq = 0.000000     beta(X;Y,X) =   1816.30928096
@ B-freq = 0.038675  C-freq = 0.000000     beta(Y;Y,X) =   1425.10218824
@ B-freq = 0.038675  C-freq = 0.000000     beta(Z;Y,X) =      0.00000000
@ B-freq = 0.000000  C-freq = 0.000000     beta(X;Z,X) = beta(Z,X,X)
@ B-freq = 0.000000  C-freq = 0.000000     beta(Y;Z,X) = beta(Z,Y,X)
@ B-freq = 0.000000  C-freq = 0.000000     beta(X;Z,X) =      0.00000000
@ B-freq = 0.000000  C-freq = 0.000000     beta(Y;Z,X) =      0.00000000
@ B-freq = 0.000000  C-freq = 0.000000     beta(Z;Z,X) =    -30.10142913
@ B-freq = 0.019338  C-freq = 0.000000     beta(X;Z,X) =      0.00000000
@ B-freq = 0.019338  C-freq = 0.000000     beta(Y;Z,X) =      0.00000000
@ B-freq = 0.019338  C-freq = 0.000000     beta(Z;Z,X) =    -30.48319213
@ B-freq = 0.038675  C-freq = 0.000000     beta(X;Z,X) =      0.00000000
@ B-freq = 0.038675  C-freq = 0.000000     beta(Y;Z,X) =      0.00000000
@ B-freq = 0.038675  C-freq = 0.000000     beta(Z;Z,X) =    -31.68213023
@ B-freq = 0.000000  C-freq = 0.019338     beta(X;X,X) = beta(X,X,X)
@ B-freq = 0.000000  C-freq = 0.019338     beta(Y;X,X) = beta(Y,X,X)
@ B-freq = 0.000000  C-freq = 0.019338     beta(Z;X,X) = beta(Z,X,X)
@ B-freq = 0.019338  C-freq = 0.019338     beta(X;X,X) =   1505.14030186
@ B-freq = 0.019338  C-freq = 0.019338     beta(Y;X,X) =   1749.11826755
@ B-freq = 0.019338  C-freq = 0.019338     beta(Z;X,X) =      0.00000000
@ B-freq = 0.038675  C-freq = 0.019338     beta(X;X,X) =   1802.93716842
@ B-freq = 0.038675  C-freq = 0.019338     beta(Y;X,X) =   1958.60170621
@ B-freq = 0.038675  C-freq = 0.019338     beta(Z;X,X) =      0.00000000
@ B-freq = 0.000000  C-freq = 0.019338     beta(X;Y,X) =   1677.61952386
@ B-freq = 0.000000  C-freq = 0.019338     beta(Y;Y,X) =   1330.67870040
@ B-freq = 0.000000  C-freq = 0.019338     beta(Z;Y,X) =      0.00000000
@ B-freq = 0.019338  C-freq = 0.019338     beta(X;Y,X) =   1791.63248375
@ B-freq = 0.019338  C-freq = 0.019338     beta(Y;Y,X) =   1397.22602517
@ B-freq = 0.019338  C-freq = 0.019338     beta(Z;Y,X) =      0.00000000
@ B-freq = 0.038675  C-freq = 0.019338     beta(X;Y,X) =   2041.41874981
@ B-freq = 0.038675  C-freq = 0.019338     beta(Y;Y,X) =   1549.26817913
@ B-freq = 0.038675  C-freq = 0.019338     beta(Z;Y,X) =      0.00000000
@ B-freq = 0.000000  C-freq = 0.019338     beta(X;Z,X) =      0.00000000
@ B-freq = 0.000000  C-freq = 0.019338     beta(Y;Z,X) =      0.00000000
@ B-freq = 0.000000  C-freq = 0.019338     beta(Z;Z,X) =    -30.65497770
@ B-freq = 0.019338  C-freq = 0.019338     beta(X;Z,X) =      0.00000000
@ B-freq = 0.019338  C-freq = 0.019338     beta(Y;Z,X) =      0.00000000
@ B-freq = 0.019338  C-freq = 0.019338     beta(Z;Z,X) =    -31.44837099
@ B-freq = 0.038675  C-freq = 0.019338     beta(X;Z,X) =      0.00000000
@ B-freq = 0.038675  C-freq = 0.019338     beta(Y;Z,X) =      0.00000000
@ B-freq = 0.038675  C-freq = 0.019338     beta(Z;Z,X) =    -33.15058947
@ B-freq = 0.000000  C-freq = 0.038675     beta(X;X,X) = beta(X,X,X)
@ B-freq = 0.000000  C-freq = 0.038675     beta(Y;X,X) = beta(Y,X,X)
@ B-freq = 0.000000  C-freq = 0.038675     beta(Z;X,X) = beta(Z,X,X)
@ B-freq = 0.019338  C-freq = 0.038675     beta(X;X,X) = beta(X,X,X)
@ B-freq = 0.019338  C-freq = 0.038675     beta(Y;X,X) = beta(Y,X,X)
@ B-freq = 0.019338  C-freq = 0.038675     beta(Z;X,X) = beta(Z,X,X)
@ B-freq = 0.038675  C-freq = 0.038675     beta(X;X,X) =   2291.62573962
@ B-freq = 0.038675  C-freq = 0.038675     beta(Y;X,X) =   2271.43000802
@ B-freq = 0.038675  C-freq = 0.038675     beta(Z;X,X) =      0.00000000
@ B-freq = 0.000000  C-freq = 0.038675     beta(X;Y,X) =   1874.85167152
@ B-freq = 0.000000  C-freq = 0.038675     beta(Y;Y,X) =   1455.61072415
@ B-freq = 0.000000  C-freq = 0.038675     beta(Z;Y,X) =      0.00000000
@ B-freq = 0.019338  C-freq = 0.038675     beta(X;Y,X) =   2090.33632904
@ B-freq = 0.019338  C-freq = 0.038675     beta(Y;Y,X) =   1574.62607345
@ B-freq = 0.019338  C-freq = 0.038675     beta(Z;Y,X) =      0.00000000
@ B-freq = 0.038675  C-freq = 0.038675     beta(X;Y,X) =   2515.48571042
@ B-freq = 0.038675  C-freq = 0.038675     beta(Y;Y,X) =   1816.33616886
@ B-freq = 0.038675  C-freq = 0.038675     beta(Z;Y,X) =      0.00000000
@ B-freq = 0.000000  C-freq = 0.038675     beta(X;Z,X) =      0.00000000
@ B-freq = 0.000000  C-freq = 0.038675     beta(Y;Z,X) =      0.00000000
@ B-freq = 0.000000  C-freq = 0.038675     beta(Z;Z,X) =    -32.43188139
@ B-freq = 0.019338  C-freq = 0.038675     beta(X;Z,X) =      0.00000000
@ B-freq = 0.019338  C-freq = 0.038675     beta(Y;Z,X) =      0.00000000
@ B-freq = 0.019338  C-freq = 0.038675     beta(Z;Z,X) =    -33.74098210
@ B-freq = 0.038675  C-freq = 0.038675     beta(X;Z,X) =      0.00000000
@ B-freq = 0.038675  C-freq = 0.038675     beta(Y;Z,X) =      0.00000000
@ B-freq = 0.038675  C-freq = 0.038675     beta(Z;Z,X) =    -36.14824197
@ B-freq = 0.000000  C-freq = 0.000000     beta(X;X,Y) = beta(Y,X,X)
@ B-freq = 0.000000  C-freq = 0.000000     beta(Y;X,Y) = beta(Y,Y,X)
@ B-freq = 0.000000  C-freq = 0.000000     beta(Z;X,Y) = beta(Z,Y,X)
@ B-freq = 0.019338  C-freq = 0.000000     beta(X;X,Y) = beta(X,Y,X)
@ B-freq = 0.019338  C-freq = 0.000000     beta(Y;X,Y) = beta(Y,Y,X)
@ B-freq = 0.019338  C-freq = 0.000000     beta(Z;X,Y) = beta(Z,Y,X)
@ B-freq = 0.038675  C-freq = 0.000000     beta(X;X,Y) = beta(X,Y,X)
@ B-freq = 0.038675  C-freq = 0.000000     beta(Y;X,Y) = beta(Y,Y,X)
@ B-freq = 0.038675  C-freq = 0.000000     beta(Z;X,Y) = beta(Z,Y,X)
@ B-freq = 0.000000  C-freq = 0.000000     beta(X;Y,Y) = beta(Y,Y,X)
@ B-freq = 0.000000  C-freq = 0.000000     beta(X;Y,Y) =   1292.77637101
@ B-freq = 0.000000  C-freq = 0.000000     beta(Y;Y,Y) =    819.87731256
@ B-freq = 0.000000  C-freq = 0.000000     beta(Z;Y,Y) =      0.00000000
@ B-freq = 0.019338  C-freq = 0.000000     beta(X;Y,Y) =   1330.67882073
@ B-freq = 0.019338  C-freq = 0.000000     beta(Y;Y,Y) =    842.26936477
@ B-freq = 0.019338  C-freq = 0.000000     beta(Z;Y,Y) =      0.00000000
@ B-freq = 0.038675  C-freq = 0.000000     beta(X;Y,Y) =   1455.61085779
@ B-freq = 0.038675  C-freq = 0.000000     beta(Y;Y,Y) =    915.71823476
@ B-freq = 0.038675  C-freq = 0.000000     beta(Z;Y,Y) =      0.00000000
@ B-freq = 0.000000  C-freq = 0.000000     beta(X;Z,Y) = beta(Z,Y,X)
@ B-freq = 0.000000  C-freq = 0.000000     beta(Y;Z,Y) = beta(Z,Y,Y)
@ B-freq = 0.000000  C-freq = 0.000000     beta(X;Z,Y) =      0.00000000
@ B-freq = 0.000000  C-freq = 0.000000     beta(Y;Z,Y) =      0.00000000
@ B-freq = 0.000000  C-freq = 0.000000     beta(Z;Z,Y) =    -23.13694969
@ B-freq = 0.019338  C-freq = 0.000000     beta(X;Z,Y) =      0.00000000
@ B-freq = 0.019338  C-freq = 0.000000     beta(Y;Z,Y) =      0.00000000
@ B-freq = 0.019338  C-freq = 0.000000     beta(Z;Z,Y) =    -23.37004813
@ B-freq = 0.038675  C-freq = 0.000000     beta(X;Z,Y) =      0.00000000
@ B-freq = 0.038675  C-freq = 0.000000     beta(Y;Z,Y) =      0.00000000
@ B-freq = 0.038675  C-freq = 0.000000     beta(Z;Z,Y) =    -24.09822490
@ B-freq = 0.000000  C-freq = 0.019338     beta(X;X,Y) = beta(X,Y,X)
@ B-freq = 0.000000  C-freq = 0.019338     beta(Y;X,Y) = beta(Y,Y,X)
@ B-freq = 0.000000  C-freq = 0.019338     beta(Z;X,Y) = beta(Z,Y,X)
@ B-freq = 0.019338  C-freq = 0.019338     beta(X;X,Y) = beta(X,Y,X)
@ B-freq = 0.019338  C-freq = 0.019338     beta(Y;X,Y) = beta(Y,Y,X)
@ B-freq = 0.019338  C-freq = 0.019338     beta(Z;X,Y) = beta(Z,Y,X)
@ B-freq = 0.038675  C-freq = 0.019338     beta(X;X,Y) = beta(X,Y,X)
@ B-freq = 0.038675  C-freq = 0.019338     beta(Y;X,Y) = beta(Y,Y,X)
@ B-freq = 0.038675  C-freq = 0.019338     beta(Z;X,Y) = beta(Z,Y,X)
@ B-freq = 0.000000  C-freq = 0.019338     beta(X;Y,Y) = beta(X,Y,Y)
@ B-freq = 0.000000  C-freq = 0.019338     beta(Y;Y,Y) = beta(Y,Y,Y)
@ B-freq = 0.000000  C-freq = 0.019338     beta(Z;Y,Y) = beta(Z,Y,Y)
@ B-freq = 0.019338  C-freq = 0.019338     beta(X;Y,Y) =   1419.44619663
@ B-freq = 0.019338  C-freq = 0.019338     beta(Y;Y,Y) =    890.13956015
@ B-freq = 0.019338  C-freq = 0.019338     beta(Z;Y,Y) =      0.00000000
@ B-freq = 0.038675  C-freq = 0.019338     beta(X;Y,Y) =   1617.88101880
@ B-freq = 0.038675  C-freq = 0.019338     beta(Y;Y,Y) =   1000.24962826
@ B-freq = 0.038675  C-freq = 0.019338     beta(Z;Y,Y) =      0.00000000
@ B-freq = 0.000000  C-freq = 0.019338     beta(X;Z,Y) =      0.00000000
@ B-freq = 0.000000  C-freq = 0.019338     beta(Y;Z,Y) =      0.00000000
@ B-freq = 0.000000  C-freq = 0.019338     beta(Z;Z,Y) =    -23.45022284
@ B-freq = 0.019338  C-freq = 0.019338     beta(X;Z,Y) =      0.00000000
@ B-freq = 0.019338  C-freq = 0.019338     beta(Y;Z,Y) =      0.00000000
@ B-freq = 0.019338  C-freq = 0.019338     beta(Z;Z,Y) =    -23.93209770
@ B-freq = 0.038675  C-freq = 0.019338     beta(X;Z,Y) =      0.00000000
@ B-freq = 0.038675  C-freq = 0.019338     beta(Y;Z,Y) =      0.00000000
@ B-freq = 0.038675  C-freq = 0.019338     beta(Z;Z,Y) =    -24.95775545
@ B-freq = 0.000000  C-freq = 0.038675     beta(X;X,Y) = beta(X,Y,X)
@ B-freq = 0.000000  C-freq = 0.038675     beta(Y;X,Y) = beta(Y,Y,X)
@ B-freq = 0.000000  C-freq = 0.038675     beta(Z;X,Y) = beta(Z,Y,X)
@ B-freq = 0.019338  C-freq = 0.038675     beta(X;X,Y) = beta(X,Y,X)
@ B-freq = 0.019338  C-freq = 0.038675     beta(Y;X,Y) = beta(Y,Y,X)
@ B-freq = 0.019338  C-freq = 0.038675     beta(Z;X,Y) = beta(Z,Y,X)
@ B-freq = 0.038675  C-freq = 0.038675     beta(X;X,Y) = beta(X,Y,X)
@ B-freq = 0.038675  C-freq = 0.038675     beta(Y;X,Y) = beta(Y,Y,X)
@ B-freq = 0.038675  C-freq = 0.038675     beta(Z;X,Y) = beta(Z,Y,X)
@ B-freq = 0.000000  C-freq = 0.038675     beta(X;Y,Y) = beta(X,Y,Y)
@ B-freq = 0.000000  C-freq = 0.038675     beta(Y;Y,Y) = beta(Y,Y,Y)
@ B-freq = 0.000000  C-freq = 0.038675     beta(Z;Y,Y) = beta(Z,Y,Y)
@ B-freq = 0.019338  C-freq = 0.038675     beta(X;Y,Y) = beta(X,Y,Y)
@ B-freq = 0.019338  C-freq = 0.038675     beta(Y;Y,Y) = beta(Y,Y,Y)
@ B-freq = 0.019338  C-freq = 0.038675     beta(Z;Y,Y) = beta(Z,Y,Y)
@ B-freq = 0.038675  C-freq = 0.038675     beta(X;Y,Y) =   1943.33313101
@ B-freq = 0.038675  C-freq = 0.038675     beta(Y;Y,Y) =   1173.39765994
@ B-freq = 0.038675  C-freq = 0.038675     beta(Z;Y,Y) =      0.00000000
@ B-freq = 0.000000  C-freq = 0.038675     beta(X;Z,Y) =      0.00000000
@ B-freq = 0.000000  C-freq = 0.038675     beta(Y;Z,Y) =      0.00000000
@ B-freq = 0.000000  C-freq = 0.038675     beta(Z;Z,Y) =    -24.44731097
@ B-freq = 0.019338  C-freq = 0.038675     beta(X;Z,Y) =      0.00000000
@ B-freq = 0.019338  C-freq = 0.038675     beta(Y;Z,Y) =      0.00000000
@ B-freq = 0.019338  C-freq = 0.038675     beta(Z;Z,Y) =    -25.23181652
@ B-freq = 0.038675  C-freq = 0.038675     beta(X;Z,Y) =      0.00000000
@ B-freq = 0.038675  C-freq = 0.038675     beta(Y;Z,Y) =      0.00000000
@ B-freq = 0.038675  C-freq = 0.038675     beta(Z;Z,Y) =    -26.65915889
@ B-freq = 0.000000  C-freq = 0.000000     beta(X;X,Z) = beta(Z,X,X)
@ B-freq = 0.000000  C-freq = 0.000000     beta(Y;X,Z) = beta(Z,Y,X)
@ B-freq = 0.000000  C-freq = 0.000000     beta(Z;X,Z) = beta(Z,Z,X)
@ B-freq = 0.019338  C-freq = 0.000000     beta(X;X,Z) = beta(X,Z,X)
@ B-freq = 0.019338  C-freq = 0.000000     beta(Y;X,Z) = beta(Y,Z,X)
@ B-freq = 0.019338  C-freq = 0.000000     beta(Z;X,Z) = beta(Z,Z,X)
@ B-freq = 0.038675  C-freq = 0.000000     beta(X;X,Z) = beta(X,Z,X)
@ B-freq = 0.038675  C-freq = 0.000000     beta(Y;X,Z) = beta(Y,Z,X)
@ B-freq = 0.038675  C-freq = 0.000000     beta(Z;X,Z) = beta(Z,Z,X)
@ B-freq = 0.000000  C-freq = 0.000000     beta(X;Y,Z) = beta(Z,Y,X)
@ B-freq = 0.000000  C-freq = 0.000000     beta(Y;Y,Z) = beta(Z,Y,Y)
@ B-freq = 0.000000  C-freq = 0.000000     beta(Z;Y,Z) = beta(Z,Z,Y)
@ B-freq = 0.019338  C-freq = 0.000000     beta(X;Y,Z) = beta(X,Z,Y)
@ B-freq = 0.019338  C-freq = 0.000000     beta(Y;Y,Z) = beta(Y,Z,Y)
@ B-freq = 0.019338  C-freq = 0.000000     beta(Z;Y,Z) = beta(Z,Z,Y)
@ B-freq = 0.038675  C-freq = 0.000000     beta(X;Y,Z) = beta(X,Z,Y)
@ B-freq = 0.038675  C-freq = 0.000000     beta(Y;Y,Z) = beta(Y,Z,Y)
@ B-freq = 0.038675  C-freq = 0.000000     beta(Z;Y,Z) = beta(Z,Z,Y)
@ B-freq = 0.000000  C-freq = 0.000000     beta(X;Z,Z) = beta(Z,Z,X)
@ B-freq = 0.000000  C-freq = 0.000000     beta(Y;Z,Z) = beta(Z,Z,Y)
@ B-freq = 0.000000  C-freq = 0.000000     beta(X;Z,Z) =    -30.10138543
@ B-freq = 0.000000  C-freq = 0.000000     beta(Y;Z,Z) =    -23.13693450
@ B-freq = 0.000000  C-freq = 0.000000     beta(Z;Z,Z) =     -0.00000000
@ B-freq = 0.019338  C-freq = 0.000000     beta(X;Z,Z) =    -30.65493291
@ B-freq = 0.019338  C-freq = 0.000000     beta(Y;Z,Z) =    -23.45020721
@ B-freq = 0.019338  C-freq = 0.000000     beta(Z;Z,Z) =     -0.00000000
@ B-freq = 0.038675  C-freq = 0.000000     beta(X;Z,Z) =    -32.43183309
@ B-freq = 0.038675  C-freq = 0.000000     beta(Y;Z,Z) =    -24.44729391
@ B-freq = 0.038675  C-freq = 0.000000     beta(Z;Z,Z) =     -0.00000000
@ B-freq = 0.000000  C-freq = 0.019338     beta(X;X,Z) = beta(X,Z,X)
@ B-freq = 0.000000  C-freq = 0.019338     beta(Y;X,Z) = beta(Y,Z,X)
@ B-freq = 0.000000  C-freq = 0.019338     beta(Z;X,Z) = beta(Z,Z,X)
@ B-freq = 0.019338  C-freq = 0.019338     beta(X;X,Z) = beta(X,Z,X)
@ B-freq = 0.019338  C-freq = 0.019338     beta(Y;X,Z) = beta(Y,Z,X)
@ B-freq = 0.019338  C-freq = 0.019338     beta(Z;X,Z) = beta(Z,Z,X)
@ B-freq = 0.038675  C-freq = 0.019338     beta(X;X,Z) = beta(X,Z,X)
@ B-freq = 0.038675  C-freq = 0.019338     beta(Y;X,Z) = beta(Y,Z,X)
@ B-freq = 0.038675  C-freq = 0.019338     beta(Z;X,Z) = beta(Z,Z,X)
@ B-freq = 0.000000  C-freq = 0.019338     beta(X;Y,Z) = beta(X,Z,Y)
@ B-freq = 0.000000  C-freq = 0.019338     beta(Y;Y,Z) = beta(Y,Z,Y)
@ B-freq = 0.000000  C-freq = 0.019338     beta(Z;Y,Z) = beta(Z,Z,Y)
@ B-freq = 0.019338  C-freq = 0.019338     beta(X;Y,Z) = beta(X,Z,Y)
@ B-freq = 0.019338  C-freq = 0.019338     beta(Y;Y,Z) = beta(Y,Z,Y)
@ B-freq = 0.019338  C-freq = 0.019338     beta(Z;Y,Z) = beta(Z,Z,Y)
@ B-freq = 0.038675  C-freq = 0.019338     beta(X;Y,Z) = beta(X,Z,Y)
@ B-freq = 0.038675  C-freq = 0.019338     beta(Y;Y,Z) = beta(Y,Z,Y)
@ B-freq = 0.038675  C-freq = 0.019338     beta(Z;Y,Z) = beta(Z,Z,Y)
@ B-freq = 0.000000  C-freq = 0.019338     beta(X;Z,Z) = beta(X,Z,Z)
@ B-freq = 0.000000  C-freq = 0.019338     beta(Y;Z,Z) = beta(Y,Z,Z)
@ B-freq = 0.000000  C-freq = 0.019338     beta(Z;Z,Z) = beta(Z,Z,Z)
@ B-freq = 0.019338  C-freq = 0.019338     beta(X;Z,Z) =    -32.01572718
@ B-freq = 0.019338  C-freq = 0.019338     beta(Y;Z,Z) =    -24.19659666
@ B-freq = 0.019338  C-freq = 0.019338     beta(Z;Z,Z) =     -0.00000000
@ B-freq = 0.038675  C-freq = 0.019338     beta(X;Z,Z) =    -34.89605129
@ B-freq = 0.038675  C-freq = 0.019338     beta(Y;Z,Z) =    -25.76939569
@ B-freq = 0.038675  C-freq = 0.019338     beta(Z;Z,Z) =     -0.00000000
@ B-freq = 0.000000  C-freq = 0.038675     beta(X;X,Z) = beta(X,Z,X)
@ B-freq = 0.000000  C-freq = 0.038675     beta(Y;X,Z) = beta(Y,Z,X)
@ B-freq = 0.000000  C-freq = 0.038675     beta(Z;X,Z) = beta(Z,Z,X)
@ B-freq = 0.019338  C-freq = 0.038675     beta(X;X,Z) = beta(X,Z,X)
@ B-freq = 0.019338  C-freq = 0.038675     beta(Y;X,Z) = beta(Y,Z,X)
@ B-freq = 0.019338  C-freq = 0.038675     beta(Z;X,Z) = beta(Z,Z,X)
@ B-freq = 0.038675  C-freq = 0.038675     beta(X;X,Z) = beta(X,Z,X)
@ B-freq = 0.038675  C-freq = 0.038675     beta(Y;X,Z) = beta(Y,Z,X)
@ B-freq = 0.038675  C-freq = 0.038675     beta(Z;X,Z) = beta(Z,Z,X)
@ B-freq = 0.000000  C-freq = 0.038675     beta(X;Y,Z) = beta(X,Z,Y)
@ B-freq = 0.000000  C-freq = 0.038675     beta(Y;Y,Z) = beta(Y,Z,Y)
@ B-freq = 0.000000  C-freq = 0.038675     beta(Z;Y,Z) = beta(Z,Z,Y)
@ B-freq = 0.019338  C-freq = 0.038675     beta(X;Y,Z) = beta(X,Z,Y)
@ B-freq = 0.019338  C-freq = 0.038675     beta(Y;Y,Z) = beta(Y,Z,Y)
@ B-freq = 0.019338  C-freq = 0.038675     beta(Z;Y,Z) = beta(Z,Z,Y)
@ B-freq = 0.038675  C-freq = 0.038675     beta(X;Y,Z) = beta(X,Z,Y)
@ B-freq = 0.038675  C-freq = 0.038675     beta(Y;Y,Z) = beta(Y,Z,Y)
@ B-freq = 0.038675  C-freq = 0.038675     beta(Z;Y,Z) = beta(Z,Z,Y)
@ B-freq = 0.000000  C-freq = 0.038675     beta(X;Z,Z) = beta(X,Z,Z)
@ B-freq = 0.000000  C-freq = 0.038675     beta(Y;Z,Z) = beta(Y,Z,Z)
@ B-freq = 0.000000  C-freq = 0.038675     beta(Z;Z,Z) = beta(Z,Z,Z)
@ B-freq = 0.019338  C-freq = 0.038675     beta(X;Z,Z) = beta(X,Z,Z)
@ B-freq = 0.019338  C-freq = 0.038675     beta(Y;Z,Z) = beta(Y,Z,Z)
@ B-freq = 0.019338  C-freq = 0.038675     beta(Z;Z,Z) = beta(Z,Z,Z)
@ B-freq = 0.038675  C-freq = 0.038675     beta(X;Z,Z) =    -39.57333782
@ B-freq = 0.038675  C-freq = 0.038675     beta(Y;Z,Z) =    -28.24991035
@ B-freq = 0.038675  C-freq = 0.038675     beta(Z;Z,Z) =     -0.00000000

  Total CPU  time used in RESPONSE:  12 hours 22 minutes 34 seconds
  Total wall time used in RESPONSE:  12 hours 25 minutes 30 seconds


                   .-------------------------------------------.
                   | End of Dynamic Property Section (RESPONS) |
                   `-------------------------------------------'

  Total CPU  time used in DALTON:  14 hours 19 minutes 29 seconds
  Total wall time used in DALTON:  14 hours 22 minutes 55 seconds

 
     Date and time (Linux)  : Wed May  7 01:34:30 2025
     Host name              : xm048                                   
