

     ************************************************************************
     *************** Dalton - An Electronic Structure Program ***************
     ************************************************************************

    This is output from DALTON release Dalton2020.0 (2020)
         ( Web site: http://daltonprogram.org )

   ----------------------------------------------------------------------------

    NOTE:
     
    Dalton is an experimental code for the evaluation of molecular
    properties using (MC)SCF, DFT, CI, and CC wave functions.
    The authors accept no responsibility for the performance of
    the code or for the correctness of the results.
     
    The code (in whole or part) is provided under a licence and
    is not to be reproduced for further distribution without
    the written permission of the authors or their representatives.
     
    See the home page "http://daltonprogram.org" for further information.
     
    If results obtained with this code are published,
    the appropriate citations would be both of:
     
       K. Aidas, C. Angeli, K. L. Bak, V. Bakken, R. Bast,
       L. Boman, O. Christiansen, R. Cimiraglia, S. Coriani,
       P. Dahle, E. K. Dalskov, U. Ekstroem,
       T. Enevoldsen, J. J. Eriksen, P. Ettenhuber, B. Fernandez,
       L. Ferrighi, H. Fliegl, L. Frediani, K. Hald, A. Halkier,
       C. Haettig, H. Heiberg, T. Helgaker, A. C. Hennum,
       H. Hettema, E. Hjertenaes, S. Hoest, I.-M. Hoeyvik,
       M. F. Iozzi, B. Jansik, H. J. Aa. Jensen, D. Jonsson,
       P. Joergensen, J. Kauczor, S. Kirpekar,
       T. Kjaergaard, W. Klopper, S. Knecht, R. Kobayashi, H. Koch,
       J. Kongsted, A. Krapp, K. Kristensen, A. Ligabue,
       O. B. Lutnaes, J. I. Melo, K. V. Mikkelsen, R. H. Myhre,
       C. Neiss, C. B. Nielsen, P. Norman, J. Olsen,
       J. M. H. Olsen, A. Osted, M. J. Packer, F. Pawlowski,
       T. B. Pedersen, P. F. Provasi, S. Reine, Z. Rinkevicius,
       T. A. Ruden, K. Ruud, V. Rybkin, P. Salek, C. C. M. Samson,
       A. Sanchez de Meras, T. Saue, S. P. A. Sauer,
       B. Schimmelpfennig, K. Sneskov, A. H. Steindal,
       K. O. Sylvester-Hvid, P. R. Taylor, A. M. Teale,
       E. I. Tellgren, D. P. Tew, A. J. Thorvaldsen, L. Thoegersen,
       O. Vahtras, M. A. Watson, D. J. D. Wilson, M. Ziolkowski
       and H. Agren,
       "The Dalton quantum chemistry program system",
       WIREs Comput. Mol. Sci. 2014, 4:269–284 (doi: 10.1002/wcms.1172)
     
    and
     
       Dalton, a molecular electronic structure program,
       Release Dalton2020.0 (2020), see http://daltonprogram.org
   ----------------------------------------------------------------------------

    Authors in alphabetical order (Major contribution(s) in parenthesis):

  Kestutis Aidas,           Vilnius University,           Lithuania   (QM/MM)
  Celestino Angeli,         University of Ferrara,        Italy       (NEVPT2)
  Keld L. Bak,              UNI-C,                        Denmark     (AOSOPPA, non-adiabatic coupling, magnetic properties)
  Vebjoern Bakken,          University of Oslo,           Norway      (DALTON; geometry optimizer, symmetry detection)
  Radovan Bast,             UiT The Arctic U. of Norway,  Norway      (DALTON installation and execution frameworks)
  Pablo Baudin,             University of Valencia,       Spain       (Cholesky excitation energies)
  Linus Boman,              NTNU,                         Norway      (Cholesky decomposition and subsystems)
  Bruno N. Cabral Tenorio,  Technical Univ. of Denmark,   Denmark     (Lanczos-based CC methods)
  Ove Christiansen,         Aarhus University,            Denmark     (CC module)
  Renzo Cimiraglia,         University of Ferrara,        Italy       (NEVPT2)
  Sonia Coriani,            Technical Univ. of Denmark,   Denmark     (CC and RESPONS modules)
  Janusz Cukras,            University of Warsaw,         Poland      (MChD in RESPONS)
  Paal Dahle,               University of Oslo,           Norway      (Parallelization)
  Erik K. Dalskov,          UNI-C,                        Denmark     (SOPPA)
  Thomas Enevoldsen,        Univ. of Southern Denmark,    Denmark     (SOPPA)
  Janus J. Eriksen,         Aarhus University,            Denmark     (Polarizable embedding, TDA)
  Rasmus Faber,             Technical Univ. of Denmark,   Denmark     (Vib.avg. NMR w. SOPPA, parallel AO-SOPPA, CVS-CC and EOMCC)
  Tobias Fahleson,          KTH Stockholm,                Sweden      (Damped cubic response)
  Berta Fernandez,          U. of Santiago de Compostela, Spain       (Doublet spin, ESR in RESPONS)
  Lara Ferrighi,            Aarhus University,            Denmark     (PCM Cubic response)
  Heike Fliegl,             University of Oslo,           Norway      (CCSD(R12))
  Luca Frediani,            UiT The Arctic U. of Norway,  Norway      (PCM)
  Emmanuel Fromager,        Univ. Strasbourg,             France      (MC-srDFT)
  Bin Gao,                  UiT The Arctic U. of Norway,  Norway      (Gen1Int library)
  Andre S. P. Gomes,        CNRS/Universite de Lille,     France      (Frozen density embedding)
  Christof Haettig,         Ruhr-University Bochum,       Germany     (CC module)
  Kasper Hald,              Aarhus University,            Denmark     (CC module)
  Asger Halkier,            Aarhus University,            Denmark     (CC module)
  Frederik Beyer Hansen,    University of Copenhagen,     Denmark     (Parallel AO-SOPPA)
  Erik D. Hedegaard,        Univ. of Southern Denmark,    Denmark     (Polarizable embedding, QM/MM, and MC-srDFT)
  Hanne Heiberg,            University of Oslo,           Norway      (Geometry analysis, selected one-electron integrals)
  Trygve Helgaker,          University of Oslo,           Norway      (DALTON; ABACUS, ERI, DFT modules, London, and much more)
  Alf Christian Hennum,     University of Oslo,           Norway      (Parity violation)
  Hinne Hettema,            University of Auckland,       New Zealand (Quadratic response in RESPONS; SIRIUS supersymmetry)
  Eirik Hjertenaes,         NTNU,                         Norway      (Cholesky decomposition)
  Pi A. B. Haase,           University of Copenhagen,     Denmark     (Triplet AO-SOPPA)
  Maria Francesca Iozzi,    University of Oslo,           Norway      (RPA)
  Christoph Jacob           TU Braunschweig               Germany     (Frozen density embedding)
  Brano Jansik              Technical Univ. of Ostrava    Czech Rep.  (DFT cubic response)
  Hans Joergen Aa. Jensen,  Univ. of Southern Denmark,    Denmark     (DALTON; SIRIUS, RESPONS, ABACUS, MC-srDFT, and much more)
  Dan Jonsson,              UiT The Arctic U. of Norway,  Norway      (Cubic response in RESPONS module)
  Poul Joergensen,          Aarhus University,            Denmark     (RESPONS, ABACUS, and CC modules)
  Maciej Kaminski,          University of Warsaw,         Poland      (CPPh in RESPONS)
  Joanna Kauczor,           Linkoeping University,        Sweden      (Complex polarization propagator (CPP) module)
  Sheela Kirpekar,          Univ. of Southern Denmark,    Denmark     (Mass-velocity & Darwin integrals)
  Erik Kjellgren,           Univ. of Southern Denmark,    Denmark     (MC-srDFT)
  Wim Klopper,              KIT Karlsruhe,                Germany     (R12 code in CC, SIRIUS, and ABACUS modules)
  Stefan Knecht,            ETH Zurich,                   Switzerland (Parallel CI and MCSCF, MC-srDFT)
  Rika Kobayashi,           Australian National Univ.,    Australia   (DIIS in CC, London in MCSCF)
  Henrik Koch,              NTNU,                         Norway      (CC module, Cholesky decomposition)
  Jacob Kongsted,           Univ. of Southern Denmark,    Denmark     (Polarizable embedding, polarizable density embedding, QM/MM)
  Andrea Ligabue,           University of Modena,         Italy       (CTOCD, AOSOPPA)
  Nanna H. List             Univ. of Southern Denmark,    Denmark     (Polarizable embedding)
  Ola B. Lutnaes,           University of Oslo,           Norway      (DFT Hessian)
  Juan I. Melo,             University of Buenos Aires,   Argentina   (LRESC, Relativistic Effects on NMR Shieldings)
  Kurt V. Mikkelsen,        University of Copenhagen,     Denmark     (MC-SCRF and QM/MM)
  Rolf H. Myhre,            NTNU,                         Norway      (Subsystems and CC3)
  Christian Neiss,          Univ. Erlangen-Nuernberg,     Germany     (CCSD(R12))
  Christian B. Nielsen,     University of Copenhagen,     Denmark     (QM/MM)
  Patrick Norman,           KTH Stockholm,                Sweden      (Cubic response and complex frequency response in RESPONS)
  Jeppe Olsen,              Aarhus University,            Denmark     (SIRIUS CI/density modules)
  Jogvan Magnus H. Olsen,   Aarhus University,            Denmark     (Polarizable embedding and polarizable density embedding)
  Anders Osted,             Copenhagen University,        Denmark     (QM/MM)
  Martin J. Packer,         University of Sheffield,      UK          (SOPPA)
  Filip Pawlowski,          Kazimierz Wielki University,  Poland      (CC3)
  Morten N. Pedersen,       Univ. of Southern Denmark,    Denmark     (Polarizable embedding)
  Thomas B. Pedersen,       University of Oslo,           Norway      (Cholesky decomposition)
  Patricio F. Provasi,      University of Northeastern,   Argentina   (Analysis of coupling constants in localized orbitals)
  Peter Reinholdt,          Univ. of Southern Denmark,    Denmark     (Polarizable embedding and polarizable density embedding)
  Zilvinas Rinkevicius,     KTH Stockholm,                Sweden      (open-shell DFT, ESR)
  Elias Rudberg,            KTH Stockholm,                Sweden      (DFT grid and basis info)
  Torgeir A. Ruden,         University of Oslo,           Norway      (Numerical derivatives in ABACUS)
  Kenneth Ruud,             UiT The Arctic U. of Norway,  Norway      (DALTON; ABACUS magnetic properties and much more)
  Pawel Salek,              KTH Stockholm,                Sweden      (DALTON; DFT code)
  Claire C. M. Samson       University of Karlsruhe       Germany     (Boys localization, r12 integrals in ERI)
  Alfredo Sanchez de Meras, University of Valencia,       Spain       (CC module, Cholesky decomposition)
  Trond Saue,               Paul Sabatier University,     France      (direct Fock matrix construction)
  Stephan P. A. Sauer,      University of Copenhagen,     Denmark     (SOPPA(CCSD), SOPPA prop., AOSOPPA, vibrational g-factors)
  Bernd Schimmelpfennig,    Forschungszentrum Karlsruhe,  Germany     (AMFI module)
  Anna K. Schnack-Petersen, University of Copenhagen,     Denmark     (RPA(D) and HRPA(D) properties in AOSOPPA)
  Kristian Sneskov,         Aarhus University,            Denmark     (Polarizable embedding, QM/MM)
  Arnfinn H. Steindal,      UiT The Arctic U. of Norway,  Norway      (parallel QM/MM, polarizable embedding)
  Casper Steinmann,         Aalborg University,           Denmark     (QFIT, polarizable embedding)
  K. O. Sylvester-Hvid,     University of Copenhagen,     Denmark     (MC-SCRF)
  Peter R. Taylor,          VLSCI/Univ. of Melbourne,     Australia   (Symmetry handling ABACUS, integral transformation)
  Andrew M. Teale,          University of Nottingham,     England     (DFT-AC, DFT-D)
  David P. Tew,             University of Bristol,        England     (CCSD(R12))
  Julien Toulouse,          Sorbonne Univ.,               France      (MC-srDFT)
  Olav Vahtras,             KTH Stockholm,                Sweden      (Triplet response, spin-orbit, ESR, TDDFT, open-shell DFT)
  Lucas Visscher,           Vrije Universiteit Amsterdam, Netherlands (Frozen density embedding)
  David J. Wilson,          La Trobe University,          Australia   (DFT Hessian and DFT magnetizabilities)
  Hans Agren,               KTH Stockholm,                Sweden      (SIRIUS module, RESPONS, MC-SCRF solvation)
 --------------------------------------------------------------------------------

     Date and time (Linux)  : Tue May  6 09:47:21 2025
     Host name              : xm048                                   

 * Work memory size             :  1310720000 =  9.766 gigabytes.

 * Directories for basis set searches:
   1) /gpfs/projects/rjh/adrian/summer2025/beta_projects/raw_data/NLO/dalton/hf/n3/dipole
   2) /gpfs/projects/rjh/adrian/dalton/build/basis


Compilation information
-----------------------

 Who compiled             | ahurtado
 Host                     | milan2
 System                   | Linux-5.14.0-427.42.1.el9_4.x86_64
 CMake generator          | Unix Makefiles
 Processor                | x86_64
 64-bit integers          | OFF
 MPI                      | ON
 Fortran compiler         | /gpfs/software/openmpi/milan/gcc13.2/4.1.6/bin/mpi
                          | f90
 Fortran compiler version | GNU Fortran (GCC) 13.2.0
 C compiler               | /gpfs/software/openmpi/milan/gcc13.2/4.1.6/bin/mpi
                          | cc
 C compiler version       | gcc (GCC) 13.2.0
 C++ compiler             | /gpfs/software/openmpi/milan/gcc13.2/4.1.6/bin/mpi
                          | cxx
 C++ compiler version     | unknown
 BLAS                     | /gpfs/software/intel/oneAPI/2024_2/mkl/2024.2/lib/
                          | intel64/libmkl_gf_lp64.so;/gpfs/software/intel/one
                          | API/2024_2/mkl/2024.2/lib/intel64/libmkl_sequentia
                          | l.so;/gpfs/software/intel/oneAPI/2024_2/mkl/2024.2
                          | /lib/intel64/libmkl_core.so;/usr/lib64/libpthread.
                          | a;/usr/lib64/libm.so
 LAPACK                   | /gpfs/software/intel/oneAPI/2024_2/mkl/2024.2/lib/
                          | intel64/libmkl_lapack95_lp64.a;/gpfs/software/inte
                          | l/oneAPI/2024_2/mkl/2024.2/lib/intel64/libmkl_gf_l
                          | p64.so
 Static linking           | OFF
 Last Git revision        | 66052b3af5ea7225e31178bf9a8b031913c72190
 Git branch               | (HEAD detached at Dalton2020.0)
 Configuration time       | 2025-04-10 16:02:31.569498

 * MPI parallel run using 96 processes.


   Content of the .dal input file
 ----------------------------------

**DALTON INPUT
.RUN RESPONSE
.DIRECT
**WAVE FUNCTIONS
.HF
**PROPERTIES
**RESPONSE
*QUADRA
.DIPLEN
.FREQUENCIES
3
0.0 0.019337625 0.03867525
**END OF DALTON INPUT


   Content of the .mol file
 ----------------------------

BASIS
d-aug-cc-pVTZ
blah
blah
Atomtype=4 Angstrom Charge=0 Nosymmetry
Charge=6 Atoms=6
C_a 3.5837590001880586 1.689807997561741 0.0
C_b 2.218342998768872 1.7965149998534866 0.0
C_c 1.3696039998245548 0.6327549976112581 0.0
C_d 0.0 0.6496800004299873 0.0
C_e -0.7822710021759658 -0.5644059981134033 0.0
C_f -2.135866999786617 -0.5945379993769223 0.0
Charge=7 Atoms=2
N_a 4.474126999726809 2.724384999838376 0.0
N_b -2.8592999997239983 -1.8575000010382903 0.0
Charge=8 Atoms=2
O_a -2.221885998947471 -2.9141560016617842 0.0
O_b -4.093871998581652 -1.7679050022079805 0.0
Charge=1 Atoms=8
H_a 4.045026999956447 0.6942230000033286 0.0
H_b 1.7506710022323968 2.7899280001342484 0.0
H_c 4.154989997874813 3.6838820007917366 0.0
H_d 5.468287002433469 2.5547250021906613 0.0
H_e 1.868681002197853 -0.3486340010462551 0.0
H_f -0.5281119981120097 1.6124769980950349 0.0
H_g -0.2588490011384542 -1.528719998671823 0.0
H_h -2.799823000128213 0.27152800243775366 0.0


       *******************************************************************
       *********** Output from DALTON general input processing ***********
       *******************************************************************

 --------------------------------------------------------------------------------
   Overall default print level:    0
   Print level for DALTON.STAT:    1

    Parallel calculation using MPI
    AO-direct calculation (in sections where implemented)
    HERMIT 1- and 2-electron integral sections will be executed
    "Old" integral transformation used (limited to max 255 basis functions)
    Wave function sections will be executed (SIRIUS module)
    Dynamic molecular response properties section will be executed (RESPONSE module)
 --------------------------------------------------------------------------------


   ****************************************************************************
   *************** Output of molecule and basis set information ***************
   ****************************************************************************


    The two title cards from your ".mol" input:
    ------------------------------------------------------------------------
 1: blah                                                                    
 2: blah                                                                    
    ------------------------------------------------------------------------

  Coordinates are entered in Angstrom and converted to atomic units.
          - Conversion factor : 1 bohr = 0.52917721 A

  Atomic type no.    1
  --------------------
  Nuclear charge:   6.00000
  Number of symmetry independent centers:    6
  Number of basis sets to read;    2
  Basis set file used for this atomic type with Z =   6 :
     "/gpfs/projects/rjh/adrian/dalton/build/basis/aug-cc-pVTZ"

  Atomic type no.    2
  --------------------
  Nuclear charge:   7.00000
  Number of symmetry independent centers:    2
  Number of basis sets to read;    2
  Basis set file used for this atomic type with Z =   7 :
     "/gpfs/projects/rjh/adrian/dalton/build/basis/aug-cc-pVTZ"

  Atomic type no.    3
  --------------------
  Nuclear charge:   8.00000
  Number of symmetry independent centers:    2
  Number of basis sets to read;    2
  Basis set file used for this atomic type with Z =   8 :
     "/gpfs/projects/rjh/adrian/dalton/build/basis/aug-cc-pVTZ"

  Atomic type no.    4
  --------------------
  Nuclear charge:   1.00000
  Number of symmetry independent centers:    8
  Number of basis sets to read;    2
  Basis set file used for this atomic type with Z =   1 :
     "/gpfs/projects/rjh/adrian/dalton/build/basis/aug-cc-pVTZ"


                         SYMGRP: Point group information
                         -------------------------------

@    Point group: C1 


                                 Isotopic Masses
                                 ---------------

                           C_a        12.000000
                           C_b        12.000000
                           C_c        12.000000
                           C_d        12.000000
                           C_e        12.000000
                           C_f        12.000000
                           N_a        14.003074
                           N_b        14.003074
                           O_a        15.994915
                           O_b        15.994915
                           H_a         1.007825
                           H_b         1.007825
                           H_c         1.007825
                           H_d         1.007825
                           H_e         1.007825
                           H_f         1.007825
                           H_g         1.007825
                           H_h         1.007825

                       Total mass:   140.058578 amu
                       Natural abundance:  92.331 %

 Center-of-mass coordinates (a.u.):   -0.182911   -0.129889    0.000000
 Center-of-mass coordinates (Angs):   -0.096792   -0.068734    0.000000


  Atoms and basis sets
  --------------------

  Number of atom types :    4
  Total number of atoms:   18

  Basis set used is "d-aug-cc-pVTZ" from the basis set library.

  label    atoms   charge   prim   cont     basis
  ----------------------------------------------------------------------
  C_          6    6.0000    74    62      [12s7p4d3f|6s5p4d3f]                               
  N_          2    7.0000    74    62      [12s7p4d3f|6s5p4d3f]                               
  O_          2    8.0000    74    62      [12s7p4d3f|6s5p4d3f]                               
  H_          8    1.0000    34    32      [7s4p3d|5s4p3d]                                    
  ----------------------------------------------------------------------
  total:     18   74.0000  1012   876
  ----------------------------------------------------------------------
  Spherical harmonic basis used.

  Threshold for neglecting AO integrals:  1.00D-12

  Max    interatomic separation is   10.4938 Angstrom (   19.8304 Bohr)
  between atoms   14 and   10, "H_d   " and "O_b   ".

  Min HX interatomic separation is    1.0085 Angstrom (    1.9059 Bohr)

  Min YX interatomic separation is    1.2340 Angstrom (    2.3320 Bohr)


  Bond distances (Angstrom):
  --------------------------

                  atom 1     atom 2       distance
                  ------     ------       --------
  bond distance:  C_b        C_a          1.369579
  bond distance:  C_c        C_b          1.440380
  bond distance:  C_d        C_c          1.369709
  bond distance:  C_e        C_d          1.444283
  bond distance:  C_f        C_e          1.353931
  bond distance:  N_a        C_a          1.364956
  bond distance:  N_b        C_f          1.455482
  bond distance:  O_a        N_b          1.234025
  bond distance:  O_b        N_b          1.237819
  bond distance:  H_a        C_a          1.097250
  bond distance:  H_b        C_b          1.097992
  bond distance:  H_c        N_a          1.011179
  bond distance:  H_d        N_a          1.008533
  bond distance:  H_e        C_c          1.101001
  bond distance:  H_f        C_d          1.098126
  bond distance:  H_g        C_e          1.097211
  bond distance:  H_h        C_f          1.091287


  Bond angles (degrees):
  ----------------------

                  atom 1     atom 2     atom 3         angle
                  ------     ------     ------         -----
  bond angle:     C_b        C_a        N_a          126.247
  bond angle:     C_b        C_a        H_a          119.327
  bond angle:     N_a        C_a        H_a          114.425
  bond angle:     C_a        C_b        C_c          121.635
  bond angle:     C_a        C_b        H_b          119.678
  bond angle:     C_c        C_b        H_b          118.687
  bond angle:     C_b        C_c        C_d          125.396
  bond angle:     C_b        C_c        H_e          116.941
  bond angle:     C_d        C_c        H_e          117.663
  bond angle:     C_c        C_d        C_e          122.087
  bond angle:     C_c        C_d        H_f          119.454
  bond angle:     C_e        C_d        H_f          118.460
  bond angle:     C_d        C_e        C_f          124.070
  bond angle:     C_d        C_e        H_g          118.712
  bond angle:     C_f        C_e        H_g          117.218
  bond angle:     C_e        C_f        N_b          121.080
  bond angle:     C_e        C_f        H_h          126.200
  bond angle:     N_b        C_f        H_h          112.721
  bond angle:     C_a        N_a        H_c          120.887
  bond angle:     C_a        N_a        H_d          121.031
  bond angle:     H_c        N_a        H_d          118.082
  bond angle:     C_f        N_b        O_a          119.096
  bond angle:     C_f        N_b        O_b          115.654
  bond angle:     O_a        N_b        O_b          125.251




 Principal moments of inertia (u*A**2) and principal axes
 --------------------------------------------------------

   IA      61.539950          0.851426    0.524475    0.000000
   IB    1517.728391         -0.524475    0.851426    0.000000
   IC    1579.268341          0.000000    0.000000    1.000000


 Rotational constants
 --------------------

@    The molecule is planar.

               A                   B                   C

           8212.2102            332.9838            320.0083 MHz
            0.273930            0.011107            0.010674 cm-1


@  Nuclear repulsion energy :  451.042870482930 Hartree


                     .---------------------------------------.
                     | Starting in Integral Section (HERMIT) |
                     `---------------------------------------'



 ***************************************************************************************
 ****************** Output from **INTEGRALS input processing (HERMIT) ******************
 ***************************************************************************************


 - Using defaults, no **INTEGRALS input found

 Default print level:        1

 Calculation of one-electron Hamiltonian integrals.

 Center of mass  (bohr):     -0.182910683850     -0.129888666044      0.000000000000
 Operator center (bohr):      0.000000000000      0.000000000000      0.000000000000
 Gauge origin    (bohr):      0.000000000000      0.000000000000      0.000000000000
 Dipole origin   (bohr):      0.000000000000      0.000000000000      0.000000000000


     ************************************************************************
     ************************** Output from HERINT **************************
     ************************************************************************



                      Nuclear contribution to dipole moments
                      --------------------------------------

                 au               Debye          C m (/(10**-30)

      x      0.00000946         0.00002404         0.00008021
      y     -0.00000009        -0.00000023        -0.00000076
      z      0.00000000         0.00000000         0.00000000


  Time used in ONEDRV     is       1.05 seconds
  Time used in HUCKEL     is       0.30 seconds
  Time used in OVERLAP    is       0.17 seconds
  Time used in POPOVLP    is       0.33 seconds
  Time used in R2         is       0.22 seconds
  Time used in R4         is       0.27 seconds
  Time used in DIPLEN     is       0.29 seconds
  Time used in QUADRUP    is       0.58 seconds
  Time used in KINENE     is       0.31 seconds
  Time used in GABGEN     is       3.39 seconds
  Total CPU  time used in HERMIT:   6.90 seconds
  Total wall time used in HERMIT:   7.15 seconds


                        .----------------------------------.
                        | End of Integral Section (HERMIT) |
                        `----------------------------------'



                   .--------------------------------------------.
                   | Starting in Wave Function Section (SIRIUS) |
                   `--------------------------------------------'



@ Primary orbitals are deleted during canonical orthonormalization
@   because of detected numerical linear dependence or too large coefficients.
@ Eigenvalue threshold for num. lin. dep. =  1.00D-06

@  31 MO components are deleted in symmetry    1
 Overlap eigenvalues of the deleted orbitals:
  9.64D-07  8.57D-07  8.54D-07  8.12D-07  6.97D-07
  5.36D-07  4.83D-07  4.68D-07  4.16D-07  3.47D-07
  3.02D-07  2.79D-07  2.54D-07  2.23D-07  2.07D-07
  1.78D-07  1.48D-07  1.35D-07  1.30D-07  1.13D-07
  1.05D-07  8.60D-08  7.89D-08  6.44D-08  6.16D-08
  5.19D-08  4.09D-08  3.75D-08  2.90D-08  1.89D-08
  1.27D-08

 Max MO coeff. of last deleted MO & limit:  3.21D+02  1.00D+03

WARNING: Orbitals have been deleted because of numerical
   linear dependence although not requested in input.

 *** Output from Huckel module :

     Using EWMO model:          T
     Using EHT  model:          F
     Number of Huckel orbitals each symmetry:   58

 EWMO - Energy Weighted Maximum Overlap - is a Huckel type method,
        which normally is better than Extended Huckel Theory.
 Reference: Linderberg and Ohrn, Propagators in Quantum Chemistry (Wiley, 1973)

 Huckel EWMO eigenvalues for symmetry :  1
          -20.684750     -20.683474     -15.677071     -15.675001     -11.359082
          -11.357415     -11.353225     -11.347774     -11.345861     -11.345413
           -1.964419      -1.783424      -1.682928      -1.470831      -1.433671
           -1.201513      -1.142494      -0.977556      -0.959778      -0.851863
           -0.830674      -0.777499      -0.732006      -0.723226      -0.674592
           -0.618895      -0.617907      -0.585176      -0.569349      -0.536174
           -0.521070      -0.494222      -0.489654      -0.485955      -0.476642
           -0.401925      -0.393268      -0.332908      -0.263469      -0.229215
           -0.220728      -0.201503      -0.199652      -0.190332      -0.166112
           -0.142690      -0.137254      -0.130788      -0.128057      -0.126733
           -0.125875      -0.122465      -0.106958      -0.101747      -0.091911
           -0.089595      -0.085067      -0.080563

 **********************************************************************
 *SIRIUS* a direct, restricted step, second order MCSCF program       *
 **********************************************************************

 
     Date and time (Linux)  : Tue May  6 09:48:02 2025
     Host name              : xm048                                   

 Title lines from ".mol" input file:
     blah                                                                    
     blah                                                                    

 Print level on unit LUPRI =   2 is   0
 Print level on unit LUW4  =   2 is   5

@    Restricted, closed shell Hartree-Fock calculation.

@    Time-dependent Hartree-Fock calculation (random phase approximation).
 Fock matrices are calculated directly and in parallel without use of integrals on disk.

 Initial molecular orbitals are obtained according to
 ".MOSTART EWMO  " input option

     Wave function specification
     ============================
@    Wave function type        --- HF ---
@    Number of closed shell electrons          74
@    Number of electrons in active shells       0
@    Total charge of the molecule               0

@    Spin multiplicity and 2 M_S                1         0
@    Total number of symmetries                 1 (point group: C1 )
@    Reference state symmetry                   1 (irrep name : A  )

     Orbital specifications
     ======================
@    Abelian symmetry species          All |    1
@                                          |  A  
                                       --- |  ---
@    Occupied SCF orbitals              37 |   37
@    Secondary orbitals                808 |  808
@    Total number of orbitals          845 |  845
@    Number of basis functions         876 |  876

     Optimization information
     ========================
@    Number of configurations                 1
@    Number of orbital rotations          29896
     ------------------------------------------
@    Total number of variables            29897

     Maximum number of Fock   iterations      0
     Maximum number of DIIS   iterations     60
     Maximum number of QC-SCF iterations     60
     Threshold for SCF convergence     1.00D-05

    INFORMATION: Switched to "new" integral transformation (from 1988 ;-) )
    because more than 255 basis functions.


 ***********************************************
 ***** DIIS acceleration of SCF iterations *****
 ***********************************************

 C1-DIIS algorithm; max error vectors =    8

 Iter      Total energy        Error norm    Delta(E)  DIIS dim.
 -----------------------------------------------------------------------------
   1  Screening settings (-IFTHRS, JTDIIS, DIFDEN, times)   -9    1    T  3.59D+01  3.62D+01
@  1    -488.415237408        5.86941D+00   -4.88D+02    1
      Virial theorem: -V/T =      2.005003
@    MULPOP   C_a     0.49; C_b     0.22; C_c     0.42; C_d     0.17; C_e     0.42; C_f    -0.01; N_a    -0.87; N_b     0.17; O_a    -0.71; O_b    -0.70; 
@             H_a     0.00; H_b     0.09; H_c     0.31; H_d     0.34; H_e    -0.21; H_f    -0.23; H_g    -0.06; H_h     0.17; 
   1  Level shift: doubly occupied orbital energies shifted by -2.00D-01
 -----------------------------------------------------------------------------
   2  Screening settings (-IFTHRS, JTDIIS, DIFDEN, times)   -9    2    T  3.14D+01  3.16D+01
@  2    -490.098485444        2.86446D+00   -1.68D+00    2
      Virial theorem: -V/T =      2.002310
@    MULPOP   C_a    -0.16; C_b     0.07; C_c     0.31; C_d     0.30; C_e     0.37; C_f    -0.76; N_a    -0.81; N_b    -0.08; O_a    -0.63; O_b    -0.72; 
@             H_a     0.52; H_b     0.51; H_c     0.08; H_d     0.00; H_e    -0.07; H_f    -0.14; H_g     0.29; H_h     0.92; 
   2  Level shift: doubly occupied orbital energies shifted by -1.00D-01
 -----------------------------------------------------------------------------
   3  Screening settings (-IFTHRS, JTDIIS, DIFDEN, times)   -9    3    T  3.12D+01  3.14D+01
@  3    -490.464525895        6.46925D-01   -3.66D-01    3
      Virial theorem: -V/T =      2.001366
@    MULPOP   C_a     0.04; C_b    -0.03; C_c     0.30; C_d     0.16; C_e     0.25; C_f    -0.29; N_a    -0.89; N_b     0.68; O_a    -1.02; O_b    -1.21; 
@             H_a     0.51; H_b     0.49; H_c     0.03; H_d    -0.06; H_e    -0.05; H_f    -0.11; H_g     0.32; H_h     0.85; 
   3  Level shift: doubly occupied orbital energies shifted by -2.50D-02
 -----------------------------------------------------------------------------
   4  Screening settings (-IFTHRS, JTDIIS, DIFDEN, times)  -13    4    F  3.21D+01  3.23D+01
@  4    -490.492783805        2.22594D-01   -2.83D-02    4
      Virial theorem: -V/T =      2.003287
@    MULPOP   C_a     0.14; C_b    -0.05; C_c     0.36; C_d     0.15; C_e     0.29; C_f    -0.26; N_a    -0.92; N_b     0.63; O_a    -1.00; O_b    -1.21; 
@             H_a     0.50; H_b     0.46; H_c    -0.01; H_d    -0.09; H_e    -0.06; H_f    -0.11; H_g     0.33; H_h     0.85; 
   4  Level shift: doubly occupied orbital energies shifted by -1.25D-02
 -----------------------------------------------------------------------------
   5  Screening settings (-IFTHRS, JTDIIS, DIFDEN, times)  -13    5    T  3.18D+01  3.21D+01
@  5    -490.498061979        8.20999D-02   -5.28D-03    5
      Virial theorem: -V/T =      2.002666
@    MULPOP   C_a     0.11; C_b    -0.05; C_c     0.34; C_d     0.15; C_e     0.25; C_f    -0.24; N_a    -0.94; N_b     0.69; O_a    -1.02; O_b    -1.24; 
@             H_a     0.52; H_b     0.47; H_c    -0.00; H_d    -0.08; H_e    -0.05; H_f    -0.10; H_g     0.34; H_h     0.85; 
 -----------------------------------------------------------------------------
   6  Screening settings (-IFTHRS, JTDIIS, DIFDEN, times)  -13    6    T  3.18D+01  3.20D+01
@  6    -490.499166375        3.57817D-02   -1.10D-03    6
      Virial theorem: -V/T =      2.002509
@    MULPOP   C_a     0.11; C_b    -0.05; C_c     0.35; C_d     0.15; C_e     0.26; C_f    -0.26; N_a    -0.95; N_b     0.69; O_a    -1.02; O_b    -1.23; 
@             H_a     0.52; H_b     0.47; H_c    -0.00; H_d    -0.08; H_e    -0.05; H_f    -0.10; H_g     0.34; H_h     0.85; 
 -----------------------------------------------------------------------------
   7  Screening settings (-IFTHRS, JTDIIS, DIFDEN, times)  -13    7    T  3.17D+01  3.19D+01
@  7    -490.499415776        1.70903D-02   -2.49D-04    7
      Virial theorem: -V/T =      2.002565
@    MULPOP   C_a     0.11; C_b    -0.05; C_c     0.35; C_d     0.14; C_e     0.26; C_f    -0.26; N_a    -0.95; N_b     0.69; O_a    -1.01; O_b    -1.23; 
@             H_a     0.52; H_b     0.47; H_c    -0.01; H_d    -0.08; H_e    -0.05; H_f    -0.10; H_g     0.34; H_h     0.85; 
 -----------------------------------------------------------------------------
   8  Screening settings (-IFTHRS, JTDIIS, DIFDEN, times)  -13    8    T  3.17D+01  3.19D+01
@  8    -490.499466068        6.74748D-03   -5.03D-05    8
      Virial theorem: -V/T =      2.002560
@    MULPOP   C_a     0.10; C_b    -0.05; C_c     0.36; C_d     0.15; C_e     0.26; C_f    -0.26; N_a    -0.95; N_b     0.70; O_a    -1.01; O_b    -1.23; 
@             H_a     0.52; H_b     0.47; H_c    -0.01; H_d    -0.08; H_e    -0.06; H_f    -0.10; H_g     0.35; H_h     0.85; 
 -----------------------------------------------------------------------------
   9  Screening settings (-IFTHRS, JTDIIS, DIFDEN, times)  -13    9    T  3.16D+01  3.18D+01
@  9    -490.499473512        2.19538D-03   -7.44D-06    8
      Virial theorem: -V/T =      2.002549
@    MULPOP   C_a     0.10; C_b    -0.05; C_c     0.36; C_d     0.15; C_e     0.26; C_f    -0.26; N_a    -0.95; N_b     0.70; O_a    -1.01; O_b    -1.23; 
@             H_a     0.52; H_b     0.47; H_c    -0.01; H_d    -0.08; H_e    -0.06; H_f    -0.10; H_g     0.35; H_h     0.85; 
 -----------------------------------------------------------------------------
  10  Screening settings (-IFTHRS, JTDIIS, DIFDEN, times)  -13   10    T  3.13D+01  3.15D+01
@ 10    -490.499474598        1.07201D-03   -1.09D-06    8
      Virial theorem: -V/T =      2.002550
@    MULPOP   C_a     0.10; C_b    -0.05; C_c     0.36; C_d     0.15; C_e     0.26; C_f    -0.26; N_a    -0.95; N_b     0.70; O_a    -1.01; O_b    -1.23; 
@             H_a     0.52; H_b     0.47; H_c    -0.01; H_d    -0.08; H_e    -0.06; H_f    -0.10; H_g     0.35; H_h     0.85; 
 -----------------------------------------------------------------------------
  11  Screening settings (-IFTHRS, JTDIIS, DIFDEN, times)  -13   11    T  3.13D+01  3.14D+01
@ 11    -490.499474869        5.45350D-04   -2.71D-07    8
      Virial theorem: -V/T =      2.002550
@    MULPOP   C_a     0.10; C_b    -0.05; C_c     0.36; C_d     0.15; C_e     0.26; C_f    -0.26; N_a    -0.95; N_b     0.70; O_a    -1.01; O_b    -1.23; 
@             H_a     0.52; H_b     0.47; H_c    -0.01; H_d    -0.08; H_e    -0.06; H_f    -0.10; H_g     0.35; H_h     0.85; 
 -----------------------------------------------------------------------------
  12  Screening settings (-IFTHRS, JTDIIS, DIFDEN, times)  -13   12    T  3.13D+01  3.14D+01
@ 12    -490.499474952        1.57947D-04   -8.36D-08    8
      Virial theorem: -V/T =      2.002550
@    MULPOP   C_a     0.10; C_b    -0.05; C_c     0.36; C_d     0.15; C_e     0.26; C_f    -0.26; N_a    -0.95; N_b     0.70; O_a    -1.01; O_b    -1.23; 
@             H_a     0.52; H_b     0.47; H_c    -0.01; H_d    -0.08; H_e    -0.06; H_f    -0.10; H_g     0.35; H_h     0.85; 
 -----------------------------------------------------------------------------
  13  Screening settings (-IFTHRS, JTDIIS, DIFDEN, times)  -13   13    T  3.12D+01  3.13D+01
@ 13    -490.499474960        6.83124D-05   -7.25D-09    8
      Virial theorem: -V/T =      2.002550
@    MULPOP   C_a     0.10; C_b    -0.05; C_c     0.36; C_d     0.15; C_e     0.26; C_f    -0.26; N_a    -0.95; N_b     0.70; O_a    -1.01; O_b    -1.23; 
@             H_a     0.52; H_b     0.47; H_c    -0.01; H_d    -0.08; H_e    -0.06; H_f    -0.10; H_g     0.35; H_h     0.85; 
 -----------------------------------------------------------------------------
  14  Screening settings (-IFTHRS, JTDIIS, DIFDEN, times)  -13   14    T  3.12D+01  3.13D+01
@ 14    -490.499474960        2.15723D-05   -7.58D-10    8
      Virial theorem: -V/T =      2.002550
@    MULPOP   C_a     0.10; C_b    -0.05; C_c     0.36; C_d     0.15; C_e     0.26; C_f    -0.26; N_a    -0.95; N_b     0.70; O_a    -1.01; O_b    -1.23; 
@             H_a     0.52; H_b     0.47; H_c    -0.01; H_d    -0.08; H_e    -0.06; H_f    -0.10; H_g     0.35; H_h     0.85; 
 -----------------------------------------------------------------------------
  15  Screening settings (-IFTHRS, JTDIIS, DIFDEN, times)  -13   15    T  3.11D+01  3.12D+01
@ 15    -490.499474960        8.60397D-06   -7.25D-11    8

@ *** DIIS converged in  15 iterations !
@     Converged SCF energy, gradient:   -490.499474960466    8.60D-06
    - total time used in SIRFCK :              0.00 seconds


 *** SCF orbital energy analysis ***

 Only the 20 lowest virtual orbital energies printed in each symmetry.

 Number of electrons :   74
 Orbital occupations :   37

 Sym       Hartree-Fock orbital energies

1 A     -20.57948544   -20.57670544   -15.83054854   -15.61034651   -11.32438767
        -11.28297606   -11.28002984   -11.27723990   -11.24607580   -11.24230921
         -1.56986693    -1.36727868    -1.25619616    -1.13315739    -1.09091663
         -1.02115155    -0.93659925    -0.84429393    -0.79882560    -0.77989792
         -0.74635936    -0.72078455    -0.70555472    -0.69072033    -0.68830880
         -0.64161648    -0.60050083    -0.58457051    -0.55336897    -0.54231303
         -0.52672773    -0.47375781    -0.47325762    -0.47035064    -0.43256878
         -0.39376197    -0.28718208    -0.00200242     0.00432862     0.00846834
          0.01149755     0.01284237     0.01617307     0.01739872     0.01936906
          0.02100921     0.02275631     0.02329489     0.02409792     0.02629194
          0.02936476     0.03510109     0.03631104     0.03635099     0.03724706
          0.03939658     0.03980263

    E(LUMO) :    -0.00200242 au (symmetry 1)
  - E(HOMO) :    -0.28718208 au (symmetry 1)
  ------------------------------------------
    gap     :     0.28517966 au

 --- Writing SIRIFC interface file

 CPU and wall time for SCF :     544.431     547.902


                       .-----------------------------------.
                       | --- Final results from SIRIUS --- |
                       `-----------------------------------'


@    Spin multiplicity:           1
@    Spatial symmetry:            1 ( irrep  A   in C1  )
@    Total charge of molecule:    0

@    Final HF energy:            -490.499474960466                 
@    Nuclear repulsion:           451.042870482930
@    Electronic energy:          -941.542345443396

@    Final gradient norm:           0.000008603972

 
     Date and time (Linux)  : Tue May  6 09:57:11 2025
     Host name              : xm048                                   

File label for MO orbitals:   6May25   FOCKDIIS

 (Only coefficients > 0.0100 are printed.)

 Molecular orbitals for symmetry species 1  (A  )
 ------------------------------------------------

    Orbital        28       29       30       31       32       33       34
   2 C_a :1s    -0.0921  -0.0364  -0.0000   0.0281   0.0146   0.0000  -0.0008
   4 C_a :1s     0.2341   0.0587  -0.0000  -0.2012   0.1221   0.0000   0.1051
   5 C_a :1s     0.0427   0.0405  -0.0000  -0.0206   0.0326   0.0000  -0.0626
   6 C_a :1s    -0.0874   0.0291   0.0000   0.0201   0.0366  -0.0000  -0.0127
   7 C_a :2px    0.3753   0.2105  -0.0000  -0.0732  -0.0231   0.0000   0.0029
   8 C_a :2py   -0.1650  -0.2219  -0.0000   0.0737  -0.0029   0.0000  -0.0009
   9 C_a :2pz   -0.0000   0.0000   0.4236  -0.0000   0.0000  -0.0379  -0.0000
  10 C_a :2px   -0.0186  -0.0030   0.0000  -0.0026   0.0007  -0.0000   0.0001
  13 C_a :2px   -0.0654  -0.0001   0.0000   0.0397  -0.0131  -0.0000  -0.0175
  14 C_a :2py   -0.0278  -0.1341  -0.0000   0.0166  -0.0193   0.0000  -0.0042
  15 C_a :2pz    0.0000  -0.0000   0.0009   0.0000   0.0000  -0.0296   0.0000
  16 C_a :2px    0.0322   0.1138   0.0000  -0.2224  -0.0770  -0.0000   0.1189
  17 C_a :2py    0.0370   0.0000  -0.0000  -0.2039  -0.2242   0.0000   0.1707
  18 C_a :2pz   -0.0000   0.0000  -0.3804  -0.0000   0.0000   0.0826   0.0000
  19 C_a :2px   -0.0368  -0.0163  -0.0000   0.0641   0.0107   0.0000   0.0427
  20 C_a :2py   -0.0408  -0.0038  -0.0000   0.0467  -0.0004   0.0000   0.0584
  22 C_a :3d2-   0.0009  -0.0107   0.0000   0.0065  -0.0010  -0.0000   0.0002
  26 C_a :3d2+  -0.0127  -0.0091  -0.0000   0.0035   0.0004   0.0000  -0.0000
  27 C_a :3d2-  -0.0122  -0.0134   0.0000   0.0084  -0.0023  -0.0000  -0.0007
  28 C_a :3d1-   0.0000   0.0000   0.0175  -0.0000   0.0000  -0.0073   0.0000
  30 C_a :3d1+   0.0000   0.0000  -0.0026  -0.0000   0.0000  -0.0125   0.0000
  31 C_a :3d2+  -0.0266  -0.0147   0.0000   0.0079   0.0020  -0.0000  -0.0005
  32 C_a :3d2-  -0.0536   0.0532   0.0000   0.0453  -0.0039  -0.0000  -0.0430
  33 C_a :3d1-  -0.0000  -0.0000  -0.0335   0.0000  -0.0000   0.0218   0.0000
  34 C_a :3d0    0.0434  -0.0009  -0.0000  -0.0011  -0.0036   0.0000   0.0113
  35 C_a :3d1+  -0.0000  -0.0000  -0.1030   0.0000  -0.0000   0.0495  -0.0000
  36 C_a :3d2+   0.1321  -0.0095   0.0000   0.0425  -0.0141   0.0000  -0.0047
  37 C_a :3d2-   0.0129   0.0159   0.0000  -0.0286   0.0209  -0.0000   0.0377
  38 C_a :3d1-  -0.0000   0.0000  -0.0310  -0.0000   0.0000   0.0469   0.0000
  39 C_a :3d0    0.0020  -0.0015  -0.0000   0.0169  -0.0099   0.0000  -0.0244
  40 C_a :3d1+   0.0000   0.0000   0.0658  -0.0000   0.0000   0.0242  -0.0000
  41 C_a :3d2+  -0.0489  -0.0124   0.0000   0.0264  -0.0124  -0.0000  -0.0118
  56 C_a :4f3-  -0.0121  -0.0222  -0.0000  -0.0171  -0.0143   0.0000   0.0079
  57 C_a :4f2-   0.0000   0.0000  -0.0243  -0.0000   0.0000  -0.0019  -0.0000
  60 C_a :4f1+  -0.0264  -0.0079  -0.0000  -0.0021   0.0090   0.0000  -0.0014
  61 C_a :4f2+  -0.0000   0.0000   0.0186  -0.0000  -0.0000  -0.0121  -0.0000
  62 C_a :4f3+  -0.0632  -0.0038   0.0000  -0.0174  -0.0120  -0.0000  -0.0051
  64 C_b :1s     0.0449  -0.0158   0.0000   0.0649  -0.0192  -0.0000   0.0071
  66 C_b :1s     0.1246   0.1277   0.0000  -0.2839  -0.0571  -0.0000   0.0746
  67 C_b :1s     0.0876   0.0143  -0.0000  -0.0976   0.0069   0.0000   0.0199
  68 C_b :1s    -0.0382   0.0501  -0.0000  -0.0213   0.0283   0.0000   0.0742
  69 C_b :2px   -0.4337  -0.1937   0.0000   0.0136   0.0348  -0.0000  -0.0081
  70 C_b :2py   -0.1161   0.3510  -0.0000  -0.3124   0.0327   0.0000  -0.0118
  71 C_b :2pz   -0.0000   0.0000   0.2773  -0.0000   0.0000   0.1564  -0.0000
  72 C_b :2px    0.0345   0.0085  -0.0000  -0.0013  -0.0027   0.0000   0.0004
  75 C_b :2px    0.0198   0.0268   0.0000   0.1071  -0.0512  -0.0000  -0.0203
  76 C_b :2py    0.0295   0.0400   0.0000   0.0077  -0.0379  -0.0000  -0.0071
  77 C_b :2pz    0.0000  -0.0000  -0.0664   0.0000  -0.0000   0.0388   0.0000
  78 C_b :2px   -0.0121  -0.0234   0.0000  -0.0052   0.0058  -0.0000  -0.0904
  79 C_b :2py    0.0656   0.0151  -0.0000   0.0627  -0.0142   0.0000   0.0524
  80 C_b :2pz   -0.0000   0.0000   0.1082  -0.0000   0.0000  -0.0711  -0.0000
  81 C_b :2px    0.0284   0.0197   0.0000  -0.0784   0.0059  -0.0000  -0.1048
  82 C_b :2py    0.0351   0.0061   0.0000  -0.0411  -0.0211  -0.0000  -0.0394
  83 C_b :2pz    0.0000   0.0000   0.0013  -0.0000   0.0000  -0.0107   0.0000
  84 C_b :3d2-   0.0046  -0.0113   0.0000   0.0106  -0.0010  -0.0000   0.0005
  88 C_b :3d2+  -0.0128  -0.0097   0.0000   0.0067   0.0013  -0.0000   0.0001
  89 C_b :3d2-   0.0027  -0.0084   0.0000   0.0167  -0.0019  -0.0000  -0.0012
  93 C_b :3d2+  -0.0102  -0.0060   0.0000   0.0099  -0.0013   0.0000  -0.0013
  94 C_b :3d2-   0.0184   0.1293   0.0000   0.0597   0.0764  -0.0000   0.0102
  95 C_b :3d1-  -0.0000   0.0000  -0.0251  -0.0000   0.0000  -0.0106  -0.0000
  96 C_b :3d0   -0.0595  -0.0028  -0.0000  -0.0319   0.0143  -0.0000   0.0106
  97 C_b :3d1+  -0.0000   0.0000  -0.0541   0.0000  -0.0000   0.0677  -0.0000
  98 C_b :3d2+  -0.0838   0.0268   0.0000   0.0302  -0.0397  -0.0000  -0.0315
  99 C_b :3d2-  -0.0860   0.0593   0.0000   0.0360   0.0432  -0.0000  -0.0285
 100 C_b :3d1-   0.0000  -0.0000   0.0085   0.0000  -0.0000  -0.0105   0.0000
 101 C_b :3d0    0.0195  -0.0030   0.0000  -0.0419   0.0278  -0.0000   0.0533
 102 C_b :3d1+   0.0000  -0.0000   0.0803   0.0000  -0.0000  -0.1036  -0.0000
 103 C_b :3d2+  -0.0105   0.0033  -0.0000   0.0018  -0.0032   0.0000  -0.0476
 117 C_b :4f3+   0.0104   0.0049   0.0000  -0.0021  -0.0021  -0.0000   0.0000
 118 C_b :4f3-   0.0080  -0.0112   0.0000  -0.0117  -0.0249  -0.0000  -0.0161
 119 C_b :4f2-   0.0000   0.0000   0.0189  -0.0000   0.0000  -0.0273   0.0000
 120 C_b :4f1-   0.0095  -0.0074  -0.0000   0.0113  -0.0024  -0.0000  -0.0025
 121 C_b :4f0    0.0000  -0.0000  -0.0224  -0.0000   0.0000   0.0066   0.0000
 122 C_b :4f1+  -0.0126  -0.0095  -0.0000   0.0039   0.0065   0.0000  -0.0069
 123 C_b :4f2+  -0.0000   0.0000  -0.0113  -0.0000  -0.0000  -0.0130  -0.0000
 124 C_b :4f3+  -0.0510   0.0195   0.0000   0.0045   0.0276  -0.0000   0.0074
 126 C_c :1s    -0.0353  -0.0105  -0.0000   0.0800   0.0289   0.0000   0.0068
 128 C_c :1s    -0.0613   0.0436   0.0000  -0.3310  -0.1718  -0.0000   0.0050
 129 C_c :1s     0.1419   0.0294  -0.0000  -0.2641  -0.0351   0.0000   0.0096
 130 C_c :1s     0.1222  -0.0888  -0.0000  -0.0036   0.0362   0.0000  -0.2645
 131 C_c :2px    0.2754  -0.0620   0.0000  -0.1536  -0.0709  -0.0000  -0.0115
 132 C_c :2py    0.2585  -0.2186   0.0000   0.3720  -0.0267  -0.0000   0.0189
 133 C_c :2pz    0.0000   0.0000   0.1474  -0.0000   0.0000   0.3505   0.0000
 134 C_c :2px   -0.0265  -0.0037  -0.0000   0.0011   0.0029   0.0000  -0.0006
 135 C_c :2py   -0.0132   0.0013  -0.0000  -0.0053   0.0044   0.0000   0.0011
 137 C_c :2px   -0.0167   0.0915   0.0000  -0.0107   0.0051   0.0000   0.0324
 138 C_c :2py    0.0207  -0.0441   0.0000   0.0646  -0.0105  -0.0000   0.0815
 139 C_c :2pz   -0.0000  -0.0000  -0.0091   0.0000  -0.0000   0.0186  -0.0000
 140 C_c :2px   -0.0343   0.0164  -0.0000   0.0268   0.0217   0.0000   0.0251
 141 C_c :2py    0.0236  -0.0622   0.0000  -0.0549  -0.0233  -0.0000   0.0260
 142 C_c :2pz    0.0000   0.0000   0.1916  -0.0000   0.0000  -0.1028   0.0000
 143 C_c :2px    0.0183  -0.0142  -0.0000   0.0045   0.0051   0.0000   0.0590
 144 C_c :2py    0.0448  -0.0077  -0.0000  -0.0223   0.0245  -0.0000  -0.0331
 146 C_c :3d2-   0.0103  -0.0048   0.0000   0.0168  -0.0023  -0.0000   0.0015
 151 C_c :3d2-   0.0116  -0.0080  -0.0000   0.0313  -0.0016   0.0000  -0.0014
 154 C_c :3d1+  -0.0000  -0.0000  -0.0009   0.0000  -0.0000  -0.0161   0.0000
 155 C_c :3d2+  -0.0092  -0.0016  -0.0000   0.0158   0.0027   0.0000  -0.0003
 156 C_c :3d2-  -0.1402  -0.0064  -0.0000   0.0803   0.0959   0.0000  -0.0742
 157 C_c :3d1-  -0.0000   0.0000   0.0346  -0.0000  -0.0000   0.0313  -0.0000
 158 C_c :3d0    0.0072  -0.0047   0.0000  -0.0142  -0.0502  -0.0000  -0.0236
 159 C_c :3d1+   0.0000   0.0000  -0.0196  -0.0000   0.0000  -0.0184  -0.0000
 160 C_c :3d2+  -0.0132   0.0921   0.0000   0.0393  -0.0223  -0.0000  -0.0168
 161 C_c :3d2-   0.0004  -0.0394  -0.0000   0.1159   0.0200   0.0000  -0.0373
 162 C_c :3d1-   0.0000  -0.0000   0.1234   0.0000  -0.0000   0.0467  -0.0000
 163 C_c :3d0    0.0392   0.0093   0.0000  -0.0505  -0.0444   0.0000   0.0006
 164 C_c :3d1+  -0.0000  -0.0000   0.0642   0.0000  -0.0000   0.1357  -0.0000
 165 C_c :3d2+   0.0371  -0.0260   0.0000  -0.0475   0.0597  -0.0000   0.1086
 180 C_c :4f3-  -0.0515  -0.0619  -0.0000  -0.0069  -0.0492   0.0000   0.0001
 181 C_c :4f2-  -0.0000  -0.0000  -0.0319  -0.0000   0.0000  -0.0117  -0.0000
 182 C_c :4f1-   0.0206  -0.0063   0.0000  -0.0050  -0.0044  -0.0000   0.0132
 184 C_c :4f1+   0.0124  -0.0070   0.0000   0.0055   0.0052  -0.0000   0.0165
 185 C_c :4f2+   0.0000  -0.0000  -0.0120   0.0000  -0.0000  -0.0095   0.0000
 186 C_c :4f3+   0.0326  -0.0361  -0.0000  -0.0303   0.0412   0.0000   0.0433
 188 C_d :1s    -0.0694  -0.0018  -0.0000   0.0418  -0.0372  -0.0000   0.0095
 190 C_d :1s     0.1171  -0.0147  -0.0000  -0.3940  -0.0459   0.0000   0.1512
 191 C_d :1s     0.1084   0.0153  -0.0000  -0.1114  -0.0331   0.0000  -0.0376
 192 C_d :1s    -0.0188   0.0269   0.0000   0.0732  -0.0529  -0.0000  -0.0129
 193 C_d :2px   -0.2424   0.0010  -0.0000   0.1727   0.0884   0.0000   0.0062
 194 C_d :2py   -0.1696  -0.2291   0.0000  -0.3721   0.0656  -0.0000  -0.0599
 195 C_d :2pz    0.0000  -0.0000   0.0923  -0.0000  -0.0000   0.4287   0.0000
 196 C_d :2px    0.0223  -0.0082   0.0000  -0.0029  -0.0059  -0.0000   0.0011
 197 C_d :2py    0.0135   0.0011   0.0000   0.0087  -0.0034  -0.0000  -0.0008
 199 C_d :2px    0.0672   0.1432  -0.0000   0.0083   0.1268   0.0000   0.0329
 200 C_d :2py   -0.0002   0.0306  -0.0000  -0.0657   0.0184   0.0000  -0.0720
 201 C_d :2pz   -0.0000   0.0000   0.0459  -0.0000  -0.0000  -0.0042  -0.0000
 202 C_d :2px    0.1002   0.0016  -0.0000  -0.1315   0.0430  -0.0000   0.1523
 203 C_d :2py   -0.0427   0.0141   0.0000   0.1513   0.0627  -0.0000  -0.1024
 204 C_d :2pz    0.0000  -0.0000  -0.0673  -0.0000   0.0000   0.3609   0.0000
 205 C_d :2px   -0.0190  -0.0326  -0.0000   0.1105  -0.0378   0.0000   0.0416
 206 C_d :2py   -0.0236  -0.0195   0.0000   0.0236   0.0134  -0.0000  -0.0081
 207 C_d :2pz   -0.0000  -0.0000  -0.0071   0.0000  -0.0000   0.0128  -0.0000
 208 C_d :3d2-   0.0088   0.0054  -0.0000   0.0170  -0.0019   0.0000   0.0021
 213 C_d :3d2-   0.0064   0.0067  -0.0000   0.0288  -0.0001   0.0000   0.0000
 214 C_d :3d1-  -0.0000  -0.0000  -0.0040   0.0000  -0.0000  -0.0142  -0.0000
 216 C_d :3d1+  -0.0000  -0.0000   0.0034   0.0000  -0.0000   0.0104  -0.0000
 217 C_d :3d2+  -0.0096   0.0000   0.0000   0.0133   0.0050   0.0000  -0.0017
 218 C_d :3d2-  -0.1644   0.0264   0.0000   0.0530  -0.0213  -0.0000  -0.0506
 219 C_d :3d1-   0.0000  -0.0000  -0.0901  -0.0000   0.0000  -0.0157   0.0000
 220 C_d :3d0    0.0530   0.0033   0.0000  -0.0241  -0.0099  -0.0000   0.0522
 221 C_d :3d1+   0.0000   0.0000  -0.0287  -0.0000   0.0000   0.0253  -0.0000
 222 C_d :3d2+   0.0235  -0.1516   0.0000   0.0110  -0.0670  -0.0000   0.0062
 223 C_d :3d2-   0.0131   0.0520   0.0000  -0.0057   0.0679  -0.0000   0.0609
 224 C_d :3d1-  -0.0000  -0.0000  -0.0600   0.0000  -0.0000  -0.1351  -0.0000
 225 C_d :3d0    0.0277  -0.0182  -0.0000   0.0116   0.0893   0.0000  -0.0729
 226 C_d :3d1+   0.0000  -0.0000  -0.0812   0.0000  -0.0000  -0.0123   0.0000
 227 C_d :3d2+  -0.0666   0.0291  -0.0000   0.0654  -0.1783   0.0000   0.0460
 235 C_d :4f3-  -0.0076   0.0121  -0.0000  -0.0002   0.0022  -0.0000  -0.0044
 242 C_d :4f3-  -0.0157  -0.0155  -0.0000   0.0444  -0.0267   0.0000  -0.0568
 243 C_d :4f2-  -0.0000  -0.0000  -0.0373   0.0000   0.0000  -0.0025  -0.0000
 244 C_d :4f1-  -0.0260  -0.0009  -0.0000   0.0044   0.0189   0.0000  -0.0138
 245 C_d :4f0    0.0000   0.0000   0.0064  -0.0000  -0.0000  -0.0115  -0.0000
 246 C_d :4f1+  -0.0095   0.0031  -0.0000  -0.0064   0.0445  -0.0000   0.0082
 247 C_d :4f2+  -0.0000  -0.0000  -0.0292  -0.0000   0.0000  -0.0098  -0.0000
 248 C_d :4f3+   0.0164  -0.0161  -0.0000   0.0046  -0.0165   0.0000  -0.0104
 250 C_e :1s     0.0867   0.0169   0.0000   0.0876   0.0311  -0.0000  -0.0516
 252 C_e :1s     0.3276  -0.1386  -0.0000  -0.2274   0.2115   0.0000  -0.1016
 253 C_e :1s     0.0920  -0.0079  -0.0000  -0.0910   0.0125   0.0000  -0.0413
 254 C_e :1s     0.0185  -0.0437   0.0000  -0.0339   0.0589  -0.0000  -0.0253
 255 C_e :2px    0.3751  -0.2107  -0.0000  -0.0391  -0.1457  -0.0000   0.0266
 256 C_e :2py    0.0748   0.3249  -0.0000   0.3128  -0.0492   0.0000   0.0812
 257 C_e :2pz   -0.0000  -0.0000   0.0443   0.0000  -0.0000   0.3729  -0.0000
 258 C_e :2px   -0.0287   0.0087  -0.0000   0.0012   0.0053   0.0000   0.0031
 261 C_e :2px   -0.0331  -0.0594   0.0000  -0.1358  -0.1289  -0.0000  -0.0123
 262 C_e :2py   -0.1263   0.0974   0.0000  -0.0395  -0.1658  -0.0000  -0.0199
 263 C_e :2pz    0.0000   0.0000  -0.0182  -0.0000   0.0000   0.0031   0.0000
 264 C_e :2px    0.0772  -0.0137  -0.0000   0.0958   0.1557   0.0000  -0.0635
 265 C_e :2py    0.0131  -0.0682   0.0000  -0.0026   0.0841  -0.0000  -0.1070
 266 C_e :2pz   -0.0000  -0.0000  -0.0099   0.0000  -0.0000   0.1263  -0.0000
 267 C_e :2px   -0.0358   0.0458   0.0000  -0.0707   0.0093  -0.0000   0.0976
 268 C_e :2py   -0.0396   0.0305   0.0000  -0.0325  -0.0331  -0.0000   0.1308
 270 C_e :3d2-  -0.0007   0.0117  -0.0000   0.0111  -0.0051   0.0000   0.0006
 274 C_e :3d2+  -0.0118   0.0081  -0.0000   0.0054   0.0040   0.0000  -0.0011
 275 C_e :3d2-  -0.0027   0.0078   0.0000   0.0185  -0.0002   0.0000   0.0071
 276 C_e :3d1-  -0.0000  -0.0000   0.0023   0.0000   0.0000   0.0146  -0.0000
 279 C_e :3d2+  -0.0103   0.0062   0.0000   0.0087   0.0092   0.0000  -0.0039
 280 C_e :3d2-  -0.0516  -0.1318  -0.0000   0.0926   0.1381   0.0000  -0.0612
 281 C_e :3d1-   0.0000   0.0000  -0.0194  -0.0000   0.0000   0.0295   0.0000
 282 C_e :3d0   -0.0450  -0.0152  -0.0000  -0.0326   0.0367   0.0000  -0.0046
 283 C_e :3d1+  -0.0000  -0.0000  -0.0785  -0.0000  -0.0000  -0.0244  -0.0000
 284 C_e :3d2+   0.0283  -0.0867   0.0000  -0.0118  -0.1331  -0.0000  -0.0925
 285 C_e :3d2-  -0.0996  -0.0199  -0.0000   0.1616  -0.0309   0.0000  -0.1540
 286 C_e :3d1-  -0.0000  -0.0000   0.0265   0.0000  -0.0000  -0.0688  -0.0000
 287 C_e :3d0   -0.0006   0.0356   0.0000  -0.0828  -0.0176  -0.0000   0.0700
 288 C_e :3d1+  -0.0000  -0.0000   0.0668   0.0000  -0.0000  -0.1378  -0.0000
 289 C_e :3d2+  -0.0283   0.0260   0.0000   0.0098   0.1879   0.0000  -0.0302
 303 C_e :4f3+  -0.0160   0.0049  -0.0000  -0.0009   0.0017   0.0000   0.0100
 304 C_e :4f3-  -0.0389  -0.0389  -0.0000   0.0356  -0.0992   0.0000   0.0261
 305 C_e :4f2-  -0.0000  -0.0000  -0.0190   0.0000   0.0000  -0.0122  -0.0000
 306 C_e :4f1-  -0.0246  -0.0010  -0.0000  -0.0118  -0.0018   0.0000  -0.0049
 310 C_e :4f3+  -0.0192   0.0548   0.0000  -0.0148  -0.0507  -0.0000   0.0841
 312 C_f :1s    -0.0893   0.0028  -0.0000  -0.0032  -0.1067   0.0000  -0.0086
 314 C_f :1s    -0.1077   0.0258  -0.0000  -0.2055  -0.3856   0.0000   0.2113
 315 C_f :1s     0.0325   0.0194   0.0000  -0.0289   0.0708  -0.0000  -0.0111
 316 C_f :1s    -0.0566   0.0140   0.0000   0.0870   0.0836  -0.0000   0.2203
 317 C_f :2px   -0.3089   0.2335   0.0000   0.1019   0.1854  -0.0000  -0.0413
 318 C_f :2py    0.1426  -0.1340  -0.0000  -0.0521   0.2607   0.0000   0.1374
 319 C_f :2pz   -0.0000  -0.0000   0.0244   0.0000  -0.0000   0.2908  -0.0000
 320 C_f :2px    0.0074  -0.0081  -0.0000  -0.0031  -0.0163   0.0000   0.0004
 321 C_f :2py    0.0025   0.0025  -0.0000   0.0043  -0.0139   0.0000   0.0018
 323 C_f :2px    0.0532  -0.0618   0.0000  -0.0193  -0.2353  -0.0000  -0.0744
 324 C_f :2py    0.0001  -0.0652  -0.0000  -0.0257   0.1476   0.0000  -0.0770
 325 C_f :2pz    0.0000   0.0000  -0.0423  -0.0000  -0.0000  -0.0304   0.0000
 326 C_f :2px   -0.0826   0.0199   0.0000   0.1651  -0.1021   0.0000   0.2138
 327 C_f :2py   -0.0017   0.0192  -0.0000   0.0274   0.1978   0.0000  -0.2401
 328 C_f :2pz   -0.0000  -0.0000   0.0149   0.0000  -0.0000  -0.3790  -0.0000
 329 C_f :2px    0.0518  -0.0208  -0.0000  -0.0053   0.0101   0.0000  -0.1428
 330 C_f :2py    0.0336  -0.0143  -0.0000   0.0268  -0.0102   0.0000  -0.0819
 332 C_f :3d2-  -0.0033   0.0102   0.0000   0.0069  -0.0086  -0.0000  -0.0040
 337 C_f :3d2-  -0.0167   0.0101   0.0000   0.0080  -0.0008  -0.0000   0.0161
 340 C_f :3d1+  -0.0000  -0.0000   0.0016   0.0000   0.0000   0.0167  -0.0000
 341 C_f :3d2+  -0.0144   0.0053  -0.0000   0.0026   0.0028   0.0000   0.0172
 342 C_f :3d2-   0.0412  -0.0535  -0.0000   0.0804   0.1198   0.0000  -0.0028
 343 C_f :3d1-  -0.0000  -0.0000  -0.0006   0.0000   0.0000  -0.0226  -0.0000
 344 C_f :3d0   -0.0040   0.0130   0.0000  -0.0020  -0.0732  -0.0000   0.0068
 345 C_f :3d1+  -0.0000  -0.0000  -0.0165  -0.0000   0.0000  -0.0077   0.0000
 346 C_f :3d2+   0.0300   0.0485   0.0000   0.0406  -0.0033  -0.0000   0.0771
 347 C_f :3d2-   0.0403   0.0116   0.0000  -0.0740   0.0177  -0.0000   0.0995
 348 C_f :3d1-  -0.0000  -0.0000  -0.0243  -0.0000   0.0000   0.0663   0.0000
 349 C_f :3d0    0.0053  -0.0196   0.0000   0.0423  -0.0290  -0.0000  -0.0768
 350 C_f :3d1+   0.0000   0.0000  -0.0118   0.0000  -0.0000  -0.0747  -0.0000
 351 C_f :3d2+  -0.0567  -0.0371  -0.0000   0.0373  -0.2397   0.0000   0.0771
 359 C_f :4f3-   0.0011  -0.0096  -0.0000  -0.0044   0.0091   0.0000  -0.0164
 366 C_f :4f3-   0.0461  -0.0207  -0.0000   0.0366   0.0684   0.0000  -0.0280
 367 C_f :4f2-   0.0000   0.0000  -0.0026  -0.0000  -0.0000  -0.0126   0.0000
 368 C_f :4f1-   0.0064  -0.0002  -0.0000   0.0033   0.0341  -0.0000  -0.0012
 370 C_f :4f1+   0.0154  -0.0014   0.0000   0.0082   0.0078  -0.0000  -0.0025
 372 C_f :4f3+  -0.0058   0.0211   0.0000   0.0069  -0.0606  -0.0000   0.0702
 374 N_a :1s     0.0190  -0.0424  -0.0000   0.0264  -0.0064   0.0000   0.0009
 376 N_a :1s     0.0323  -0.0083  -0.0000   0.0049   0.0059   0.0000   0.0158
 377 N_a :1s     0.0646  -0.0238   0.0000   0.0720   0.0230  -0.0000  -0.0253
 378 N_a :1s     0.0596  -0.0094  -0.0000  -0.0585  -0.1096   0.0000   0.0587
 379 N_a :2px   -0.1880  -0.0046   0.0000  -0.0256   0.0125  -0.0000  -0.0022
 380 N_a :2py    0.0694   0.1199   0.0000  -0.0403   0.0067  -0.0000  -0.0004
 381 N_a :2pz    0.0000  -0.0000   0.6352   0.0000  -0.0000  -0.2803  -0.0000
 386 N_a :2py    0.0208  -0.0051  -0.0000  -0.0007  -0.0018   0.0000   0.0053
 387 N_a :2pz   -0.0000   0.0000   0.0470  -0.0000   0.0000  -0.0191   0.0000
 388 N_a :2px    0.0016  -0.0633  -0.0000   0.1110  -0.0079   0.0000  -0.0370
 389 N_a :2py   -0.0431  -0.0394   0.0000   0.0222   0.0638  -0.0000  -0.0243
 390 N_a :2pz    0.0000  -0.0000   0.1637   0.0000  -0.0000  -0.0328  -0.0000
 391 N_a :2px    0.0264   0.0086   0.0000  -0.0321  -0.0080  -0.0000  -0.0135
 392 N_a :2py    0.0022  -0.0001   0.0000   0.0021   0.0162  -0.0000  -0.0105
 400 N_a :3d1-  -0.0000   0.0000  -0.0131  -0.0000   0.0000   0.0031   0.0000
 402 N_a :3d1+  -0.0000   0.0000  -0.0106  -0.0000   0.0000   0.0026   0.0000
 403 N_a :3d2+  -0.0124  -0.0062  -0.0000   0.0018   0.0008   0.0000   0.0002
 405 N_a :3d1-  -0.0000  -0.0000  -0.0176  -0.0000   0.0000   0.0009   0.0000
 408 N_a :3d2+   0.0123  -0.0020  -0.0000   0.0057   0.0031   0.0000  -0.0019
 409 N_a :3d2-   0.0150   0.0308   0.0000  -0.0241  -0.0256  -0.0000  -0.0051
 410 N_a :3d1-   0.0000   0.0000  -0.0450  -0.0000   0.0000  -0.0004   0.0000
 411 N_a :3d0   -0.0139  -0.0160  -0.0000   0.0239   0.0149   0.0000   0.0000
 412 N_a :3d1+   0.0000   0.0000  -0.0440  -0.0000   0.0000  -0.0064   0.0000
 413 N_a :3d2+  -0.0147   0.0033   0.0000  -0.0038   0.0041  -0.0000  -0.0266
 433 N_a :4f2+  -0.0000  -0.0000  -0.0106   0.0000  -0.0000   0.0008  -0.0000
 436 N_b :1s     0.0148   0.0269  -0.0000   0.0210  -0.0257  -0.0000  -0.0057
 438 N_b :1s     0.0037   0.0187   0.0000  -0.0155  -0.2194  -0.0000  -0.0556
 439 N_b :1s     0.0982  -0.0406   0.0000   0.0561   0.1726  -0.0000  -0.1170
 440 N_b :1s     0.0250   0.0160  -0.0000  -0.1980  -0.3581   0.0000   0.0062
 441 N_b :2px    0.0832   0.0047  -0.0000   0.0258  -0.1259   0.0000  -0.1140
 442 N_b :2py   -0.0512   0.0912   0.0000   0.0461  -0.2507  -0.0000  -0.0139
 443 N_b :2pz   -0.0000  -0.0000  -0.0082  -0.0000   0.0000  -0.0478  -0.0000
 447 N_b :2px   -0.0103   0.0074   0.0000   0.0011  -0.0064  -0.0000   0.0502
 448 N_b :2py    0.0065  -0.0337   0.0000  -0.0078   0.0188  -0.0000  -0.0661
 449 N_b :2pz    0.0000   0.0000   0.0049   0.0000  -0.0000   0.0205   0.0000
 450 N_b :2px    0.0407  -0.0255  -0.0000  -0.1163   0.2188  -0.0000   0.0037
 451 N_b :2py    0.0778   0.0194  -0.0000   0.0382   0.2451   0.0000   0.0869
 452 N_b :2pz   -0.0000  -0.0000   0.0240  -0.0000   0.0000   0.1862  -0.0000
 453 N_b :2px   -0.0441   0.0095   0.0000  -0.0091  -0.0289  -0.0000   0.1366
 454 N_b :2py   -0.0081  -0.0109  -0.0000  -0.0243   0.0086   0.0000  -0.0124
 455 N_b :2pz    0.0000   0.0000   0.0015   0.0000  -0.0000  -0.0187  -0.0000
 456 N_b :3d2-  -0.0040   0.0009   0.0000  -0.0007  -0.0219  -0.0000   0.0015
 460 N_b :3d2+  -0.0038   0.0024   0.0000  -0.0001   0.0072  -0.0000   0.0163
 461 N_b :3d2-  -0.0080   0.0038  -0.0000   0.0002  -0.0554   0.0000   0.0011
 462 N_b :3d1-  -0.0000  -0.0000   0.0010   0.0000  -0.0000   0.0100   0.0000
 465 N_b :3d2+  -0.0101   0.0039   0.0000  -0.0013   0.0203  -0.0000   0.0365
 466 N_b :3d2-   0.0079   0.0159  -0.0000   0.0195   0.1267   0.0000  -0.0425
 469 N_b :3d1+  -0.0000  -0.0000   0.0002   0.0000   0.0000  -0.0101  -0.0000
 470 N_b :3d2+  -0.0001   0.0095   0.0000   0.0093  -0.0089   0.0000  -0.0869
 471 N_b :3d2-   0.0356  -0.0315  -0.0000   0.0430   0.0505   0.0000  -0.2442
 472 N_b :3d1-   0.0000   0.0000   0.0020  -0.0000   0.0000   0.0121  -0.0000
 473 N_b :3d0   -0.0096  -0.0051  -0.0000  -0.0012  -0.0332   0.0000   0.0227
 474 N_b :3d1+  -0.0000  -0.0000   0.0105   0.0000  -0.0000   0.0038  -0.0000
 475 N_b :3d2+   0.0268  -0.0061  -0.0000   0.0543   0.1454   0.0000  -0.3642
 483 N_b :4f3-  -0.0038  -0.0003   0.0000  -0.0023  -0.0050  -0.0000   0.0218
 489 N_b :4f3+  -0.0031  -0.0022   0.0000  -0.0028   0.0108   0.0000   0.0017
 490 N_b :4f3-  -0.0093   0.0045  -0.0000  -0.0078  -0.0057   0.0000   0.0619
 492 N_b :4f1-   0.0077  -0.0008  -0.0000   0.0033   0.0305  -0.0000  -0.0032
 494 N_b :4f1+  -0.0069   0.0055  -0.0000   0.0014   0.0117   0.0000   0.0186
 496 N_b :4f3+  -0.0027  -0.0059   0.0000  -0.0048  -0.0836  -0.0000  -0.0191
 498 O_a :1s    -0.0345   0.0340   0.0000   0.0187  -0.0108  -0.0000  -0.0031
 500 O_a :1s    -0.0336   0.0149  -0.0000   0.0068   0.0221   0.0000  -0.0578
 501 O_a :1s    -0.0127  -0.0087   0.0000   0.0361  -0.0668  -0.0000  -0.2784
 502 O_a :1s    -0.0124  -0.0017   0.0000   0.0917   0.0412  -0.0000   0.0431
 503 O_a :2px   -0.0427   0.0644   0.0000  -0.0031   0.2021  -0.0000   0.7197
 504 O_a :2py    0.1071  -0.0451  -0.0000  -0.0195   0.4036   0.0000   0.3248
 505 O_a :2pz    0.0000   0.0000  -0.0099  -0.0000   0.0000  -0.0854   0.0000
 509 O_a :2px   -0.0026   0.0074  -0.0000  -0.0057   0.0220   0.0000   0.1426
 510 O_a :2py   -0.0055  -0.0006  -0.0000  -0.0022   0.0641  -0.0000   0.0656
 512 O_a :2px   -0.0113  -0.0205   0.0000  -0.0763  -0.2062  -0.0000   0.2598
 513 O_a :2py   -0.0393   0.0179   0.0000  -0.0423  -0.1180  -0.0000   0.2914
 514 O_a :2pz    0.0000   0.0000  -0.0180  -0.0000   0.0000  -0.0603   0.0000
 515 O_a :2px    0.0105   0.0024   0.0000   0.0100  -0.0137  -0.0000   0.0209
 516 O_a :2py    0.0002   0.0038   0.0000   0.0169  -0.0034  -0.0000   0.0191
 523 O_a :3d2-  -0.0047   0.0031  -0.0000  -0.0000  -0.0078  -0.0000   0.0137
 527 O_a :3d2+  -0.0029  -0.0012   0.0000  -0.0008  -0.0086  -0.0000  -0.0142
 528 O_a :3d2-  -0.0020   0.0035   0.0000  -0.0015   0.0036  -0.0000   0.0291
 530 O_a :3d0    0.0008   0.0005   0.0000   0.0007  -0.0009  -0.0000  -0.0107
 532 O_a :3d2+   0.0021   0.0001   0.0000   0.0021  -0.0055  -0.0000  -0.0407
 533 O_a :3d2-   0.0028  -0.0033  -0.0000  -0.0069  -0.0271   0.0000   0.0138
 534 O_a :3d1-   0.0000   0.0000  -0.0048  -0.0000   0.0000  -0.0138  -0.0000
 535 O_a :3d0    0.0077  -0.0013  -0.0000   0.0097   0.0162   0.0000  -0.0361
 537 O_a :3d2+   0.0063  -0.0056  -0.0000  -0.0009   0.0284   0.0000  -0.0462
 560 O_b :1s     0.0157   0.0043  -0.0000   0.0059  -0.0091   0.0000  -0.0051
 562 O_b :1s     0.0130  -0.0112   0.0000  -0.0071  -0.0091  -0.0000   0.0236
 563 O_b :1s    -0.0216  -0.0345  -0.0000  -0.0661  -0.1791   0.0000   0.2087
 564 O_b :1s    -0.0498  -0.0032   0.0000   0.0922   0.1015  -0.0000   0.0194
 565 O_b :2px   -0.0762   0.0256   0.0000  -0.0058   0.2233  -0.0000   0.1654
 566 O_b :2py    0.0909   0.0464   0.0000   0.0876   0.7031  -0.0000  -0.5160
 567 O_b :2pz    0.0000   0.0000  -0.0111  -0.0000  -0.0000  -0.1149   0.0000
 571 O_b :2px    0.0036   0.0026  -0.0000   0.0026   0.0445   0.0000   0.0122
 572 O_b :2py    0.0196   0.0093  -0.0000   0.0182   0.1221   0.0000  -0.1137
 573 O_b :2pz   -0.0000  -0.0000  -0.0010   0.0000   0.0000  -0.0176  -0.0000
 574 O_b :2px    0.0160   0.0077   0.0000   0.0246   0.0527  -0.0000  -0.1724
 575 O_b :2py    0.0159  -0.0409   0.0000   0.0961   0.0084  -0.0000  -0.4905
 576 O_b :2pz    0.0000   0.0000  -0.0056   0.0000  -0.0000  -0.0637  -0.0000
 577 O_b :2px   -0.0009  -0.0002   0.0000   0.0119   0.0163  -0.0000  -0.0153
 578 O_b :2py    0.0042   0.0016  -0.0000   0.0017  -0.0005   0.0000  -0.0342
 585 O_b :3d2-   0.0038   0.0018  -0.0000   0.0032   0.0108   0.0000  -0.0157
 590 O_b :3d2-   0.0059   0.0042  -0.0000   0.0051   0.0320   0.0000  -0.0419
 595 O_b :3d2-  -0.0020  -0.0054   0.0000   0.0126  -0.0183  -0.0000  -0.0781
 597 O_b :3d0   -0.0018  -0.0009   0.0000  -0.0059  -0.0020  -0.0000   0.0316
 598 O_b :3d1+  -0.0000  -0.0000  -0.0021   0.0000  -0.0000  -0.0118  -0.0000
 599 O_b :3d2+   0.0082   0.0030  -0.0000   0.0015   0.0130   0.0000  -0.0319
 621 H_a :1s     0.2769   0.3315   0.0000  -0.1278   0.0033  -0.0000   0.0003
 622 H_a :1s    -0.0690  -0.0758  -0.0000   0.0316  -0.0041   0.0000  -0.0029
 623 H_a :1s    -0.1749  -0.1611  -0.0000   0.1401  -0.0681   0.0000  -0.1030
 624 H_a :1s    -0.1102   0.0440   0.0000   0.0495   0.0363  -0.0000   0.0303
 625 H_a :1s    -0.0199   0.0191   0.0000   0.0143  -0.0273   0.0000   0.0610
 632 H_a :2px   -0.0910  -0.0066  -0.0000  -0.0398   0.0014   0.0000   0.0139
 633 H_a :2py   -0.0549  -0.0339  -0.0000   0.0134  -0.0036   0.0000  -0.0057
 634 H_a :2pz    0.0000  -0.0000  -0.0110  -0.0000   0.0000  -0.0239   0.0000
 635 H_a :2px    0.0623  -0.0016  -0.0000  -0.0526  -0.0152   0.0000   0.0503
 636 H_a :2py    0.0375   0.0065  -0.0000  -0.0511  -0.0017   0.0000   0.0462
 637 H_a :2pz   -0.0000  -0.0000  -0.0410  -0.0000   0.0000   0.0051   0.0000
 648 H_a :3d2-   0.0077   0.0081  -0.0000   0.0050   0.0243   0.0000   0.0012
 650 H_a :3d0   -0.0068  -0.0040   0.0000  -0.0046  -0.0172  -0.0000   0.0014
 653 H_b :1s     0.1201   0.4522  -0.0000  -0.3228   0.0045   0.0000  -0.0068
 654 H_b :1s    -0.0352  -0.0825   0.0000   0.0710  -0.0006  -0.0000  -0.0009
 655 H_b :1s    -0.1053  -0.0371   0.0000   0.2392   0.0307  -0.0000  -0.0253
 656 H_b :1s    -0.0919   0.0580   0.0000  -0.0694  -0.0358  -0.0000   0.0135
 657 H_b :1s     0.0013   0.0043  -0.0000  -0.0239   0.0311   0.0000  -0.0877
 664 H_b :2px   -0.0141  -0.0311   0.0000   0.0170  -0.0341  -0.0000  -0.0300
 665 H_b :2py    0.0418  -0.0166   0.0000  -0.0458  -0.0363  -0.0000  -0.0081
 666 H_b :2pz    0.0000   0.0000  -0.0278  -0.0000  -0.0000  -0.0175  -0.0000
 667 H_b :2px    0.0335  -0.0352   0.0000  -0.0306   0.1642  -0.0000  -0.1840
 668 H_b :2py    0.0112  -0.0132   0.0000  -0.0144   0.0610  -0.0000  -0.0559
 669 H_b :2pz    0.0000   0.0000   0.0143   0.0000   0.0000  -0.0230  -0.0000
 680 H_b :3d2-  -0.0030   0.0005  -0.0000   0.0176  -0.0114   0.0000  -0.0117
 682 H_b :3d0   -0.0046   0.0057   0.0000  -0.0209   0.0141  -0.0000  -0.0028
 683 H_b :3d1+  -0.0000   0.0000  -0.0157   0.0000  -0.0000  -0.0029  -0.0000
 684 H_b :3d2+   0.0200  -0.0086  -0.0000   0.0166  -0.0219   0.0000   0.0143
 685 H_c :1s     0.1620   0.1280   0.0000  -0.0315  -0.0010  -0.0000   0.0010
 686 H_c :1s    -0.0337  -0.0125  -0.0000   0.0002   0.0002   0.0000  -0.0034
 687 H_c :1s    -0.0483  -0.0725  -0.0000  -0.0099  -0.0083   0.0000   0.0097
 688 H_c :1s     0.0169  -0.0358  -0.0000   0.0813  -0.1848   0.0000  -0.0134
 689 H_c :1s    -0.0028  -0.0024   0.0000   0.0154  -0.0167   0.0000   0.0432
 695 H_c :2pz   -0.0000  -0.0000   0.0197   0.0000  -0.0000  -0.0096  -0.0000
 696 H_c :2px    0.0096   0.0021   0.0000  -0.0035  -0.0202  -0.0000   0.0057
 697 H_c :2py   -0.0038   0.0198   0.0000  -0.0014   0.0028  -0.0000  -0.0050
 698 H_c :2pz    0.0000  -0.0000   0.0063   0.0000  -0.0000  -0.0101  -0.0000
 699 H_c :2px   -0.0064  -0.0069   0.0000  -0.0019   0.0260   0.0000  -0.0479
 700 H_c :2py   -0.0099   0.0095  -0.0000  -0.0131   0.0263   0.0000   0.0174
 701 H_c :2pz   -0.0000  -0.0000   0.0109  -0.0000   0.0000   0.0002  -0.0000
 716 H_c :3d2+   0.0039   0.0012  -0.0000  -0.0059   0.0059   0.0000   0.0129
 717 H_d :1s    -0.2234  -0.0600   0.0000  -0.0046   0.0111  -0.0000  -0.0021
 718 H_d :1s     0.0197   0.0151  -0.0000  -0.0087  -0.0040   0.0000  -0.0016
 719 H_d :1s     0.0306   0.0264  -0.0000  -0.0299   0.0315   0.0000   0.0175
 720 H_d :1s    -0.0165  -0.0261  -0.0000   0.1181   0.1779   0.0000  -0.0261
 721 H_d :1s     0.0110  -0.0031   0.0000  -0.0189   0.0119  -0.0000  -0.0376
 727 H_d :2pz    0.0000   0.0000   0.0210   0.0000  -0.0000  -0.0100  -0.0000
 728 H_d :2px   -0.0162   0.0011   0.0000   0.0026  -0.0007  -0.0000  -0.0029
 729 H_d :2py   -0.0139   0.0056   0.0000   0.0042   0.0086  -0.0000  -0.0043
 730 H_d :2pz    0.0000   0.0000   0.0324   0.0000  -0.0000  -0.0119  -0.0000
 731 H_d :2px   -0.0093   0.0052   0.0000  -0.0104  -0.0301  -0.0000  -0.0003
 732 H_d :2py   -0.0083   0.0035  -0.0000  -0.0074  -0.0051   0.0000   0.0272
 733 H_d :2pz    0.0000  -0.0000   0.0029   0.0000  -0.0000  -0.0143   0.0000
 745 H_d :3d1-   0.0000   0.0000   0.0131  -0.0000  -0.0000   0.0013  -0.0000
 749 H_e :1s    -0.1227   0.1820  -0.0000  -0.4556   0.0104   0.0000  -0.0283
 750 H_e :1s     0.0232  -0.0414   0.0000   0.1065   0.0007  -0.0000   0.0002
 751 H_e :1s    -0.0923  -0.1143  -0.0000   0.3461   0.1510   0.0000  -0.0823
 752 H_e :1s     0.0321  -0.0763  -0.0000   0.1186   0.0527   0.0000  -0.1618
 753 H_e :1s     0.0360  -0.0305   0.0000  -0.0095   0.0386  -0.0000  -0.0919
 760 H_e :2px   -0.0847  -0.0789  -0.0000  -0.0396  -0.0145   0.0000   0.0283
 761 H_e :2py   -0.0642  -0.0529  -0.0000   0.0736   0.0126   0.0000   0.0010
 762 H_e :2pz   -0.0000  -0.0000  -0.0367  -0.0000   0.0000  -0.0135  -0.0000
 763 H_e :2px    0.0457   0.0314  -0.0000  -0.1126  -0.0894   0.0000   0.1454
 764 H_e :2py   -0.0570   0.0332   0.0000  -0.0031  -0.0520   0.0000   0.0874
 765 H_e :2pz    0.0000   0.0000   0.0457  -0.0000   0.0000   0.0029   0.0000
 776 H_e :3d2-  -0.0198   0.0264  -0.0000   0.0233   0.0419   0.0000   0.0100
 778 H_e :3d0    0.0177  -0.0125   0.0000  -0.0206  -0.0151  -0.0000  -0.0104
 780 H_e :3d2+  -0.0057  -0.0093   0.0000  -0.0098  -0.0438  -0.0000   0.0166
 781 H_f :1s    -0.0709  -0.2241   0.0000  -0.4791  -0.0047  -0.0000  -0.0609
 782 H_f :1s     0.0150   0.0433  -0.0000   0.1112   0.0086   0.0000   0.0087
 783 H_f :1s    -0.2034   0.0647   0.0000   0.3292  -0.1048  -0.0000   0.0512
 784 H_f :1s    -0.1311   0.0577   0.0000   0.0798  -0.1945  -0.0000   0.0956
 785 H_f :1s    -0.0227   0.0085   0.0000   0.0311  -0.0279  -0.0000   0.1194
 792 H_f :2px    0.0144  -0.0435  -0.0000   0.0685  -0.0214   0.0000  -0.0521
 793 H_f :2py    0.0275  -0.0347  -0.0000  -0.0381   0.0157   0.0000  -0.0437
 794 H_f :2pz   -0.0000  -0.0000  -0.0309   0.0000   0.0000  -0.0204  -0.0000
 795 H_f :2px   -0.0371  -0.0030   0.0000   0.0159   0.0356  -0.0000  -0.0953
 796 H_f :2py    0.0371  -0.0051   0.0000  -0.0071   0.1674  -0.0000  -0.1297
 797 H_f :2pz    0.0000  -0.0000   0.0226  -0.0000  -0.0000   0.0716   0.0000
 808 H_f :3d2-  -0.0149  -0.0001   0.0000  -0.0026   0.0076   0.0000  -0.0243
 810 H_f :3d0    0.0057   0.0070   0.0000  -0.0170   0.0130  -0.0000   0.0235
 812 H_f :3d2+   0.0175  -0.0233  -0.0000   0.0286  -0.0339   0.0000  -0.0100
 813 H_g :1s     0.1770  -0.4138   0.0000  -0.3028   0.0160  -0.0000  -0.0523
 814 H_g :1s    -0.0605   0.0832  -0.0000   0.0657   0.0033   0.0000   0.0280
 815 H_g :1s    -0.2288   0.0582  -0.0000   0.2411  -0.0337   0.0000   0.0113
 816 H_g :1s    -0.0105  -0.0434   0.0000   0.0374   0.1525  -0.0000  -0.1694
 817 H_g :1s    -0.0201   0.0134  -0.0000   0.0007  -0.0259   0.0000   0.0580
 824 H_g :2px   -0.0615  -0.0502  -0.0000   0.0211  -0.0631   0.0000  -0.0004
 825 H_g :2py   -0.0826  -0.0285  -0.0000   0.0707  -0.0230   0.0000  -0.0291
 826 H_g :2pz    0.0000   0.0000  -0.0163  -0.0000   0.0000  -0.0208   0.0000
 827 H_g :2px   -0.0922   0.0507   0.0000   0.0270  -0.1334  -0.0000   0.2600
 828 H_g :2py    0.0131  -0.0195   0.0000   0.0490  -0.0304  -0.0000   0.0746
 840 H_g :3d2-   0.0091   0.0144  -0.0000   0.0491   0.0529   0.0000   0.0210
 842 H_g :3d0   -0.0139   0.0014   0.0000  -0.0226  -0.0084  -0.0000  -0.0123
 844 H_g :3d2+   0.0179  -0.0214   0.0000  -0.0282  -0.0608  -0.0000   0.0357
 845 H_h :1s     0.2578  -0.2845  -0.0000  -0.1390   0.0861   0.0000   0.1415
 846 H_h :1s    -0.0570   0.0575   0.0000   0.0341  -0.0089  -0.0000  -0.0119
 847 H_h :1s    -0.0089   0.0663   0.0000   0.1817   0.1115  -0.0000  -0.0770
 848 H_h :1s     0.0385   0.0460   0.0000  -0.0452   0.1921  -0.0000   0.2476
 849 H_h :1s     0.0199  -0.0083  -0.0000  -0.0136   0.0130   0.0000  -0.0646
 856 H_h :2px    0.0777  -0.0058  -0.0000   0.0655   0.0753   0.0000  -0.0224
 857 H_h :2py    0.0447  -0.0238  -0.0000   0.0071   0.0624   0.0000  -0.0571
 858 H_h :2pz    0.0000   0.0000  -0.0199  -0.0000  -0.0000  -0.0229  -0.0000
 859 H_h :2px   -0.0400  -0.0077  -0.0000   0.0164  -0.0510   0.0000   0.0317
 860 H_h :2py   -0.0310  -0.0315  -0.0000   0.0199  -0.1357   0.0000  -0.0285
 861 H_h :2pz    0.0000   0.0000  -0.0006   0.0000  -0.0000  -0.0775  -0.0000
 872 H_h :3d2-   0.0006   0.0133   0.0000  -0.0230   0.0450  -0.0000   0.0050
 874 H_h :3d0   -0.0002  -0.0119  -0.0000   0.0152  -0.0290   0.0000  -0.0193
 876 H_h :3d2+   0.0119  -0.0036  -0.0000   0.0087   0.0001   0.0000  -0.0042

    Orbital        35       36       37       38       39       40       41
   2 C_a :1s    -0.0000   0.0000  -0.0000  -0.0080  -0.0155   0.0151   0.0000
   4 C_a :1s    -0.0000  -0.0000   0.0000   0.7475  -0.9509   0.3588  -0.0000
   5 C_a :1s    -0.0000  -0.0000  -0.0000   1.3117   1.1579   1.6325  -0.0000
   6 C_a :1s    -0.0000   0.0000  -0.0000   0.9495   5.4248   4.9555   0.0000
   7 C_a :2px    0.0000  -0.0000   0.0000  -0.0004  -0.0102   0.0095  -0.0000
   8 C_a :2py   -0.0000  -0.0000  -0.0000   0.0315   0.0159  -0.0154  -0.0000
   9 C_a :2pz   -0.0019   0.1342   0.2983   0.0000   0.0000  -0.0000  -0.0217
  13 C_a :2px    0.0000   0.0000   0.0000   0.1186   0.9689  -0.1044   0.0000
  14 C_a :2py    0.0000  -0.0000  -0.0000  -0.0679  -0.0099   0.1296  -0.0000
  15 C_a :2pz   -0.0035   0.0221   0.0248  -0.0000   0.0000   0.0000   0.0783
  16 C_a :2px    0.0000  -0.0000  -0.0000  -0.2148  -1.9151  -1.4285  -0.0000
  17 C_a :2py    0.0000  -0.0000  -0.0000   0.7297   0.8101   0.8011  -0.0000
  18 C_a :2pz    0.0411   0.2359   0.2205   0.0000   0.0000  -0.0000  -1.5501
  19 C_a :2px    0.0000   0.0000   0.0000  -4.3057  -4.0762  -7.1506  -0.0000
  20 C_a :2py    0.0000   0.0000   0.0000  -3.8012   1.2241 -11.4658  -0.0000
  21 C_a :2pz    0.0028  -0.0220  -0.0036   0.0000   0.0000  -0.0000   8.2544
  25 C_a :3d1+   0.0003  -0.0125  -0.0135   0.0000   0.0000  -0.0000   0.0002
  27 C_a :3d2-  -0.0000   0.0000  -0.0000   0.0024   0.0075   0.0202   0.0000
  28 C_a :3d1-   0.0002  -0.0094  -0.0110  -0.0000   0.0000  -0.0000  -0.0041
  30 C_a :3d1+   0.0012  -0.0292  -0.0333  -0.0000   0.0000   0.0000  -0.0044
  31 C_a :3d2+  -0.0000   0.0000  -0.0000   0.0015   0.0038   0.0105  -0.0000
  32 C_a :3d2-  -0.0000   0.0000  -0.0000   0.0505   0.5586  -0.1109   0.0000
  33 C_a :3d1-  -0.0005   0.0013  -0.0046  -0.0000   0.0000   0.0000  -0.0281
  34 C_a :3d0    0.0000  -0.0000   0.0000   0.0496   0.0892   0.2428  -0.0000
  35 C_a :3d1+   0.0023  -0.0042  -0.0113  -0.0000  -0.0000   0.0000  -0.1039
  36 C_a :3d2+   0.0000  -0.0000   0.0000  -0.0665  -0.1736   0.0451  -0.0000
  37 C_a :3d2-  -0.0000  -0.0000   0.0000  -0.9262   1.6241  -1.8089  -0.0000
  38 C_a :3d1-   0.0385   0.0180   0.0647   0.0000   0.0000  -0.0000  -1.4050
  39 C_a :3d0    0.0000   0.0000  -0.0000   0.1517  -0.0821  -0.7642   0.0000
  40 C_a :3d1+   0.0132  -0.0162  -0.0210  -0.0000   0.0000   0.0000  -0.0011
  41 C_a :3d2+   0.0000   0.0000  -0.0000   0.2326  -0.5106   0.9813   0.0000
  49 C_a :4f3-  -0.0000   0.0000  -0.0000   0.0044  -0.0029  -0.0160   0.0000
  56 C_a :4f3-  -0.0000  -0.0000  -0.0000  -0.0368  -0.3298  -0.0392  -0.0000
  58 C_a :4f1-   0.0000  -0.0000   0.0000   0.0015   0.0439   0.0171  -0.0000
  59 C_a :4f0    0.0003  -0.0067  -0.0084   0.0000   0.0000  -0.0000   0.0287
  60 C_a :4f1+  -0.0000   0.0000  -0.0000   0.0188  -0.0094   0.0075  -0.0000
  61 C_a :4f2+  -0.0022  -0.0018  -0.0080  -0.0000  -0.0000  -0.0000   0.0317
  62 C_a :4f3+   0.0000   0.0000  -0.0000  -0.0529   0.0159  -0.0474   0.0000
  64 C_b :1s    -0.0000   0.0000   0.0000  -0.0124   0.0092   0.0092   0.0000
  66 C_b :1s     0.0000  -0.0000   0.0000   0.9373   1.6013   0.6966   0.0000
  67 C_b :1s    -0.0000  -0.0000   0.0000   0.1029   0.2900  -1.8109  -0.0000
  68 C_b :1s    -0.0000  -0.0000  -0.0000  -2.7881  -3.6856  -4.1324  -0.0000
  70 C_b :2py   -0.0000  -0.0000  -0.0000  -0.0140   0.0135   0.0147  -0.0000
  71 C_b :2pz   -0.0106   0.3881   0.3993  -0.0000   0.0000   0.0000  -0.0114
  72 C_b :2px    0.0000  -0.0000  -0.0000  -0.0104  -0.0015   0.0026  -0.0000
[...]

@ Singlet linear response function in a.u.

@ A operator, symmetry, frequency:   XDIPLEN    1 -0.019338
@ B operator, symmetry, frequency:   ZDIPLEN    1  0.019338

@ Value of linear response -<<A;B>>(omega):       0.000000000000

@ Singlet linear response function in a.u.

@ A operator, symmetry, frequency:   YDIPLEN    1 -0.019338
@ B operator, symmetry, frequency:   ZDIPLEN    1  0.019338

@ Value of linear response -<<A;B>>(omega):       0.000000000000

@ Singlet linear response function in a.u.

@ A operator, symmetry, frequency:   ZDIPLEN    1 -0.019338
@ B operator, symmetry, frequency:   ZDIPLEN    1  0.019338

@ Value of linear response -<<A;B>>(omega):      61.636056622201

@ Singlet linear response function in a.u.

@ A operator, symmetry, frequency:   XDIPLEN    1 -0.038675
@ B operator, symmetry, frequency:   ZDIPLEN    1  0.038675

@ Value of linear response -<<A;B>>(omega):       0.000000000000

@ Singlet linear response function in a.u.

@ A operator, symmetry, frequency:   YDIPLEN    1 -0.038675
@ B operator, symmetry, frequency:   ZDIPLEN    1  0.038675

@ Value of linear response -<<A;B>>(omega):      -0.000000000000

@ Singlet linear response function in a.u.

@ A operator, symmetry, frequency:   ZDIPLEN    1 -0.038675
@ B operator, symmetry, frequency:   ZDIPLEN    1  0.038675

@ Value of linear response -<<A;B>>(omega):      61.872498861545


  Results from quadratic response calculation
 --------------------------------------------

@ B-freq = 0.000000  C-freq = 0.000000     beta(X;X,X) =   1323.97913491
@ B-freq = 0.000000  C-freq = 0.000000     beta(Y;X,X) =   1620.33303383
@ B-freq = 0.000000  C-freq = 0.000000     beta(Z;X,X) =      0.00000000
@ B-freq = 0.019338  C-freq = 0.000000     beta(X;X,X) =   1382.02560025
@ B-freq = 0.019338  C-freq = 0.000000     beta(Y;X,X) =   1666.53669065
@ B-freq = 0.019338  C-freq = 0.000000     beta(Z;X,X) =      0.00000000
@ B-freq = 0.038675  C-freq = 0.000000     beta(X;X,X) =   1576.19955397
@ B-freq = 0.038675  C-freq = 0.000000     beta(Y;X,X) =   1818.58738750
@ B-freq = 0.038675  C-freq = 0.000000     beta(Z;X,X) =      0.00000000
@ B-freq = 0.000000  C-freq = 0.000000     beta(X;Y,X) = beta(Y,X,X)
@ B-freq = 0.000000  C-freq = 0.000000     beta(X;Y,X) =   1620.33291880
@ B-freq = 0.000000  C-freq = 0.000000     beta(Y;Y,X) =   1294.61615197
@ B-freq = 0.000000  C-freq = 0.000000     beta(Z;Y,X) =      0.00000000
@ B-freq = 0.019338  C-freq = 0.000000     beta(X;Y,X) =   1666.53657225
@ B-freq = 0.019338  C-freq = 0.000000     beta(Y;Y,X) =   1325.68799393
@ B-freq = 0.019338  C-freq = 0.000000     beta(Z;Y,X) =      0.00000000
@ B-freq = 0.038675  C-freq = 0.000000     beta(X;Y,X) =   1818.58725825
@ B-freq = 0.038675  C-freq = 0.000000     beta(Y;Y,X) =   1427.14673110
@ B-freq = 0.038675  C-freq = 0.000000     beta(Z;Y,X) =      0.00000000
@ B-freq = 0.000000  C-freq = 0.000000     beta(X;Z,X) = beta(Z,X,X)
@ B-freq = 0.000000  C-freq = 0.000000     beta(Y;Z,X) = beta(Z,Y,X)
@ B-freq = 0.000000  C-freq = 0.000000     beta(X;Z,X) =      0.00000000
@ B-freq = 0.000000  C-freq = 0.000000     beta(Y;Z,X) =      0.00000000
@ B-freq = 0.000000  C-freq = 0.000000     beta(Z;Z,X) =    -30.24311823
@ B-freq = 0.019338  C-freq = 0.000000     beta(X;Z,X) =      0.00000000
@ B-freq = 0.019338  C-freq = 0.000000     beta(Y;Z,X) =      0.00000000
@ B-freq = 0.019338  C-freq = 0.000000     beta(Z;Z,X) =    -30.62701000
@ B-freq = 0.038675  C-freq = 0.000000     beta(X;Z,X) =      0.00000000
@ B-freq = 0.038675  C-freq = 0.000000     beta(Y;Z,X) =      0.00000000
@ B-freq = 0.038675  C-freq = 0.000000     beta(Z;Z,X) =    -31.83268103
@ B-freq = 0.000000  C-freq = 0.019338     beta(X;X,X) = beta(X,X,X)
@ B-freq = 0.000000  C-freq = 0.019338     beta(Y;X,X) = beta(Y,X,X)
@ B-freq = 0.000000  C-freq = 0.019338     beta(Z;X,X) = beta(Z,X,X)
@ B-freq = 0.019338  C-freq = 0.019338     beta(X;X,X) =   1507.93024808
@ B-freq = 0.019338  C-freq = 0.019338     beta(Y;X,X) =   1751.31452334
@ B-freq = 0.019338  C-freq = 0.019338     beta(Z;X,X) =      0.00000000
@ B-freq = 0.038675  C-freq = 0.019338     beta(X;X,X) =   1806.14733785
@ B-freq = 0.038675  C-freq = 0.019338     beta(Y;X,X) =   1961.09463915
@ B-freq = 0.038675  C-freq = 0.019338     beta(Z;X,X) =      0.00000000
@ B-freq = 0.000000  C-freq = 0.019338     beta(X;Y,X) =   1679.70193188
@ B-freq = 0.000000  C-freq = 0.019338     beta(Y;Y,X) =   1332.57445862
@ B-freq = 0.000000  C-freq = 0.019338     beta(Z;Y,X) =      0.00000000
@ B-freq = 0.019338  C-freq = 0.019338     beta(X;Y,X) =   1793.85901094
@ B-freq = 0.019338  C-freq = 0.019338     beta(Y;Y,X) =   1399.22446833
@ B-freq = 0.019338  C-freq = 0.019338     beta(Z;Y,X) =      0.00000000
@ B-freq = 0.038675  C-freq = 0.019338     beta(X;Y,X) =   2043.97114123
@ B-freq = 0.038675  C-freq = 0.019338     beta(Y;Y,X) =   1551.50326331
@ B-freq = 0.038675  C-freq = 0.019338     beta(Z;Y,X) =      0.00000000
@ B-freq = 0.000000  C-freq = 0.019338     beta(X;Z,X) =      0.00000000
@ B-freq = 0.000000  C-freq = 0.019338     beta(Y;Z,X) =      0.00000000
@ B-freq = 0.000000  C-freq = 0.019338     beta(Z;Z,X) =    -30.80028217
@ B-freq = 0.019338  C-freq = 0.019338     beta(X;Z,X) =      0.00000000
@ B-freq = 0.019338  C-freq = 0.019338     beta(Y;Z,X) =      0.00000000
@ B-freq = 0.019338  C-freq = 0.019338     beta(Z;Z,X) =    -31.59813964
@ B-freq = 0.038675  C-freq = 0.019338     beta(X;Z,X) =      0.00000000
@ B-freq = 0.038675  C-freq = 0.019338     beta(Y;Z,X) =      0.00000000
@ B-freq = 0.038675  C-freq = 0.019338     beta(Z;Z,X) =    -33.31004226
@ B-freq = 0.000000  C-freq = 0.038675     beta(X;X,X) = beta(X,X,X)
@ B-freq = 0.000000  C-freq = 0.038675     beta(Y;X,X) = beta(Y,X,X)
@ B-freq = 0.000000  C-freq = 0.038675     beta(Z;X,X) = beta(Z,X,X)
@ B-freq = 0.019338  C-freq = 0.038675     beta(X;X,X) = beta(X,X,X)
@ B-freq = 0.019338  C-freq = 0.038675     beta(Y;X,X) = beta(Y,X,X)
@ B-freq = 0.019338  C-freq = 0.038675     beta(Z;X,X) = beta(Z,X,X)
@ B-freq = 0.038675  C-freq = 0.038675     beta(X;X,X) =   2295.51619783
@ B-freq = 0.038675  C-freq = 0.038675     beta(Y;X,X) =   2274.38446885
@ B-freq = 0.038675  C-freq = 0.038675     beta(Z;X,X) =      0.00000000
@ B-freq = 0.000000  C-freq = 0.038675     beta(X;Y,X) =   1877.17150067
@ B-freq = 0.000000  C-freq = 0.038675     beta(Y;Y,X) =   1457.69118798
@ B-freq = 0.000000  C-freq = 0.038675     beta(Z;Y,X) =      0.00000000
@ B-freq = 0.019338  C-freq = 0.038675     beta(X;Y,X) =   2092.92364338
@ B-freq = 0.019338  C-freq = 0.038675     beta(Y;Y,X) =   1576.89087088
@ B-freq = 0.019338  C-freq = 0.038675     beta(Z;Y,X) =      0.00000000
@ B-freq = 0.038675  C-freq = 0.038675     beta(X;Y,X) =   2518.61666422
@ B-freq = 0.038675  C-freq = 0.038675     beta(Y;Y,X) =   1818.97957195
@ B-freq = 0.038675  C-freq = 0.038675     beta(Z;Y,X) =      0.00000000
@ B-freq = 0.000000  C-freq = 0.038675     beta(X;Z,X) =      0.00000000
@ B-freq = 0.000000  C-freq = 0.038675     beta(Y;Z,X) =      0.00000000
@ B-freq = 0.000000  C-freq = 0.038675     beta(Z;Z,X) =    -32.58891580
@ B-freq = 0.019338  C-freq = 0.038675     beta(X;Z,X) =      0.00000000
@ B-freq = 0.019338  C-freq = 0.038675     beta(Y;Z,X) =      0.00000000
@ B-freq = 0.019338  C-freq = 0.038675     beta(Z;Z,X) =    -33.90556012
@ B-freq = 0.038675  C-freq = 0.038675     beta(X;Z,X) =      0.00000000
@ B-freq = 0.038675  C-freq = 0.038675     beta(Y;Z,X) =      0.00000000
@ B-freq = 0.038675  C-freq = 0.038675     beta(Z;Z,X) =    -36.32691619
@ B-freq = 0.000000  C-freq = 0.000000     beta(X;X,Y) = beta(Y,X,X)
@ B-freq = 0.000000  C-freq = 0.000000     beta(Y;X,Y) = beta(Y,Y,X)
@ B-freq = 0.000000  C-freq = 0.000000     beta(Z;X,Y) = beta(Z,Y,X)
@ B-freq = 0.019338  C-freq = 0.000000     beta(X;X,Y) = beta(X,Y,X)
@ B-freq = 0.019338  C-freq = 0.000000     beta(Y;X,Y) = beta(Y,Y,X)
@ B-freq = 0.019338  C-freq = 0.000000     beta(Z;X,Y) = beta(Z,Y,X)
@ B-freq = 0.038675  C-freq = 0.000000     beta(X;X,Y) = beta(X,Y,X)
@ B-freq = 0.038675  C-freq = 0.000000     beta(Y;X,Y) = beta(Y,Y,X)
@ B-freq = 0.038675  C-freq = 0.000000     beta(Z;X,Y) = beta(Z,Y,X)
@ B-freq = 0.000000  C-freq = 0.000000     beta(X;Y,Y) = beta(Y,Y,X)
@ B-freq = 0.000000  C-freq = 0.000000     beta(X;Y,Y) =   1294.61623702
@ B-freq = 0.000000  C-freq = 0.000000     beta(Y;Y,Y) =    821.69049933
@ B-freq = 0.000000  C-freq = 0.000000     beta(Z;Y,Y) =      0.00000000
@ B-freq = 0.019338  C-freq = 0.000000     beta(X;Y,Y) =   1332.57454688
@ B-freq = 0.019338  C-freq = 0.000000     beta(Y;Y,Y) =    844.12588614
@ B-freq = 0.019338  C-freq = 0.000000     beta(Z;Y,Y) =      0.00000000
@ B-freq = 0.038675  C-freq = 0.000000     beta(X;Y,Y) =   1457.69128673
@ B-freq = 0.038675  C-freq = 0.000000     beta(Y;Y,Y) =    917.71676161
@ B-freq = 0.038675  C-freq = 0.000000     beta(Z;Y,Y) =      0.00000000
@ B-freq = 0.000000  C-freq = 0.000000     beta(X;Z,Y) = beta(Z,Y,X)
@ B-freq = 0.000000  C-freq = 0.000000     beta(Y;Z,Y) = beta(Z,Y,Y)
@ B-freq = 0.000000  C-freq = 0.000000     beta(X;Z,Y) =      0.00000000
@ B-freq = 0.000000  C-freq = 0.000000     beta(Y;Z,Y) =      0.00000000
@ B-freq = 0.000000  C-freq = 0.000000     beta(Z;Z,Y) =    -23.17578113
@ B-freq = 0.019338  C-freq = 0.000000     beta(X;Z,Y) =      0.00000000
@ B-freq = 0.019338  C-freq = 0.000000     beta(Y;Z,Y) =      0.00000000
@ B-freq = 0.019338  C-freq = 0.000000     beta(Z;Z,Y) =    -23.40954687
@ B-freq = 0.038675  C-freq = 0.000000     beta(X;Z,Y) =      0.00000000
@ B-freq = 0.038675  C-freq = 0.000000     beta(Y;Z,Y) =      0.00000000
@ B-freq = 0.038675  C-freq = 0.000000     beta(Z;Z,Y) =    -24.13982662
@ B-freq = 0.000000  C-freq = 0.019338     beta(X;X,Y) = beta(X,Y,X)
@ B-freq = 0.000000  C-freq = 0.019338     beta(Y;X,Y) = beta(Y,Y,X)
@ B-freq = 0.000000  C-freq = 0.019338     beta(Z;X,Y) = beta(Z,Y,X)
@ B-freq = 0.019338  C-freq = 0.019338     beta(X;X,Y) = beta(X,Y,X)
@ B-freq = 0.019338  C-freq = 0.019338     beta(Y;X,Y) = beta(Y,Y,X)
@ B-freq = 0.019338  C-freq = 0.019338     beta(Z;X,Y) = beta(Z,Y,X)
@ B-freq = 0.038675  C-freq = 0.019338     beta(X;X,Y) = beta(X,Y,X)
@ B-freq = 0.038675  C-freq = 0.019338     beta(Y;X,Y) = beta(Y,Y,X)
@ B-freq = 0.038675  C-freq = 0.019338     beta(Z;X,Y) = beta(Z,Y,X)
@ B-freq = 0.000000  C-freq = 0.019338     beta(X;Y,Y) = beta(X,Y,Y)
@ B-freq = 0.000000  C-freq = 0.019338     beta(Y;Y,Y) = beta(Y,Y,Y)
@ B-freq = 0.000000  C-freq = 0.019338     beta(Z;Y,Y) = beta(Z,Y,Y)
@ B-freq = 0.019338  C-freq = 0.019338     beta(X;Y,Y) =   1421.47090616
@ B-freq = 0.019338  C-freq = 0.019338     beta(Y;Y,Y) =    892.08864952
@ B-freq = 0.019338  C-freq = 0.019338     beta(Z;Y,Y) =      0.00000000
@ B-freq = 0.038675  C-freq = 0.019338     beta(X;Y,Y) =   1620.19764615
@ B-freq = 0.038675  C-freq = 0.019338     beta(Y;Y,Y) =   1002.41135750
@ B-freq = 0.038675  C-freq = 0.019338     beta(Z;Y,Y) =      0.00000000
@ B-freq = 0.000000  C-freq = 0.019338     beta(X;Z,Y) =      0.00000000
@ B-freq = 0.000000  C-freq = 0.019338     beta(Y;Z,Y) =      0.00000000
@ B-freq = 0.000000  C-freq = 0.019338     beta(Z;Z,Y) =    -23.49063785
@ B-freq = 0.019338  C-freq = 0.019338     beta(X;Z,Y) =      0.00000000
@ B-freq = 0.019338  C-freq = 0.019338     beta(Y;Z,Y) =      0.00000000
@ B-freq = 0.019338  C-freq = 0.019338     beta(Z;Z,Y) =    -23.97391657
@ B-freq = 0.038675  C-freq = 0.019338     beta(X;Z,Y) =      0.00000000
@ B-freq = 0.038675  C-freq = 0.019338     beta(Y;Z,Y) =      0.00000000
@ B-freq = 0.038675  C-freq = 0.019338     beta(Z;Z,Y) =    -25.00260369
@ B-freq = 0.000000  C-freq = 0.038675     beta(X;X,Y) = beta(X,Y,X)
@ B-freq = 0.000000  C-freq = 0.038675     beta(Y;X,Y) = beta(Y,Y,X)
@ B-freq = 0.000000  C-freq = 0.038675     beta(Z;X,Y) = beta(Z,Y,X)
@ B-freq = 0.019338  C-freq = 0.038675     beta(X;X,Y) = beta(X,Y,X)
@ B-freq = 0.019338  C-freq = 0.038675     beta(Y;X,Y) = beta(Y,Y,X)
@ B-freq = 0.019338  C-freq = 0.038675     beta(Z;X,Y) = beta(Z,Y,X)
@ B-freq = 0.038675  C-freq = 0.038675     beta(X;X,Y) = beta(X,Y,X)
@ B-freq = 0.038675  C-freq = 0.038675     beta(Y;X,Y) = beta(Y,Y,X)
@ B-freq = 0.038675  C-freq = 0.038675     beta(Z;X,Y) = beta(Z,Y,X)
@ B-freq = 0.000000  C-freq = 0.038675     beta(X;Y,Y) = beta(X,Y,Y)
@ B-freq = 0.000000  C-freq = 0.038675     beta(Y;Y,Y) = beta(Y,Y,Y)
@ B-freq = 0.000000  C-freq = 0.038675     beta(Z;Y,Y) = beta(Z,Y,Y)
@ B-freq = 0.019338  C-freq = 0.038675     beta(X;Y,Y) = beta(X,Y,Y)
@ B-freq = 0.019338  C-freq = 0.038675     beta(Y;Y,Y) = beta(Y,Y,Y)
@ B-freq = 0.019338  C-freq = 0.038675     beta(Z;Y,Y) = beta(Z,Y,Y)
@ B-freq = 0.038675  C-freq = 0.038675     beta(X;Y,Y) =   1946.13016724
@ B-freq = 0.038675  C-freq = 0.038675     beta(Y;Y,Y) =   1175.89314588
@ B-freq = 0.038675  C-freq = 0.038675     beta(Z;Y,Y) =      0.00000000
@ B-freq = 0.000000  C-freq = 0.038675     beta(X;Z,Y) =      0.00000000
@ B-freq = 0.000000  C-freq = 0.038675     beta(Y;Z,Y) =      0.00000000
@ B-freq = 0.000000  C-freq = 0.038675     beta(Z;Z,Y) =    -24.49287525
@ B-freq = 0.019338  C-freq = 0.038675     beta(X;Z,Y) =      0.00000000
@ B-freq = 0.019338  C-freq = 0.038675     beta(Y;Z,Y) =      0.00000000
@ B-freq = 0.019338  C-freq = 0.038675     beta(Z;Z,Y) =    -25.27978092
@ B-freq = 0.038675  C-freq = 0.038675     beta(X;Z,Y) =      0.00000000
@ B-freq = 0.038675  C-freq = 0.038675     beta(Y;Z,Y) =      0.00000000
@ B-freq = 0.038675  C-freq = 0.038675     beta(Z;Z,Y) =    -26.71157842
@ B-freq = 0.000000  C-freq = 0.000000     beta(X;X,Z) = beta(Z,X,X)
@ B-freq = 0.000000  C-freq = 0.000000     beta(Y;X,Z) = beta(Z,Y,X)
@ B-freq = 0.000000  C-freq = 0.000000     beta(Z;X,Z) = beta(Z,Z,X)
@ B-freq = 0.019338  C-freq = 0.000000     beta(X;X,Z) = beta(X,Z,X)
@ B-freq = 0.019338  C-freq = 0.000000     beta(Y;X,Z) = beta(Y,Z,X)
@ B-freq = 0.019338  C-freq = 0.000000     beta(Z;X,Z) = beta(Z,Z,X)
@ B-freq = 0.038675  C-freq = 0.000000     beta(X;X,Z) = beta(X,Z,X)
@ B-freq = 0.038675  C-freq = 0.000000     beta(Y;X,Z) = beta(Y,Z,X)
@ B-freq = 0.038675  C-freq = 0.000000     beta(Z;X,Z) = beta(Z,Z,X)
@ B-freq = 0.000000  C-freq = 0.000000     beta(X;Y,Z) = beta(Z,Y,X)
@ B-freq = 0.000000  C-freq = 0.000000     beta(Y;Y,Z) = beta(Z,Y,Y)
@ B-freq = 0.000000  C-freq = 0.000000     beta(Z;Y,Z) = beta(Z,Z,Y)
@ B-freq = 0.019338  C-freq = 0.000000     beta(X;Y,Z) = beta(X,Z,Y)
@ B-freq = 0.019338  C-freq = 0.000000     beta(Y;Y,Z) = beta(Y,Z,Y)
@ B-freq = 0.019338  C-freq = 0.000000     beta(Z;Y,Z) = beta(Z,Z,Y)
@ B-freq = 0.038675  C-freq = 0.000000     beta(X;Y,Z) = beta(X,Z,Y)
@ B-freq = 0.038675  C-freq = 0.000000     beta(Y;Y,Z) = beta(Y,Z,Y)
@ B-freq = 0.038675  C-freq = 0.000000     beta(Z;Y,Z) = beta(Z,Z,Y)
@ B-freq = 0.000000  C-freq = 0.000000     beta(X;Z,Z) = beta(Z,Z,X)
@ B-freq = 0.000000  C-freq = 0.000000     beta(Y;Z,Z) = beta(Z,Z,Y)
@ B-freq = 0.000000  C-freq = 0.000000     beta(X;Z,Z) =    -30.24306422
@ B-freq = 0.000000  C-freq = 0.000000     beta(Y;Z,Z) =    -23.17575647
@ B-freq = 0.000000  C-freq = 0.000000     beta(Z;Z,Z) =     -0.00000000
@ B-freq = 0.019338  C-freq = 0.000000     beta(X;Z,Z) =    -30.80022673
@ B-freq = 0.019338  C-freq = 0.000000     beta(Y;Z,Z) =    -23.49061254
@ B-freq = 0.019338  C-freq = 0.000000     beta(Z;Z,Z) =     -0.00000000
@ B-freq = 0.038675  C-freq = 0.000000     beta(X;Z,Z) =    -32.58885575
@ B-freq = 0.038675  C-freq = 0.000000     beta(Y;Z,Z) =    -24.49284785
@ B-freq = 0.038675  C-freq = 0.000000     beta(Z;Z,Z) =     -0.00000000
@ B-freq = 0.000000  C-freq = 0.019338     beta(X;X,Z) = beta(X,Z,X)
@ B-freq = 0.000000  C-freq = 0.019338     beta(Y;X,Z) = beta(Y,Z,X)
@ B-freq = 0.000000  C-freq = 0.019338     beta(Z;X,Z) = beta(Z,Z,X)
@ B-freq = 0.019338  C-freq = 0.019338     beta(X;X,Z) = beta(X,Z,X)
@ B-freq = 0.019338  C-freq = 0.019338     beta(Y;X,Z) = beta(Y,Z,X)
@ B-freq = 0.019338  C-freq = 0.019338     beta(Z;X,Z) = beta(Z,Z,X)
@ B-freq = 0.038675  C-freq = 0.019338     beta(X;X,Z) = beta(X,Z,X)
@ B-freq = 0.038675  C-freq = 0.019338     beta(Y;X,Z) = beta(Y,Z,X)
@ B-freq = 0.038675  C-freq = 0.019338     beta(Z;X,Z) = beta(Z,Z,X)
@ B-freq = 0.000000  C-freq = 0.019338     beta(X;Y,Z) = beta(X,Z,Y)
@ B-freq = 0.000000  C-freq = 0.019338     beta(Y;Y,Z) = beta(Y,Z,Y)
@ B-freq = 0.000000  C-freq = 0.019338     beta(Z;Y,Z) = beta(Z,Z,Y)
@ B-freq = 0.019338  C-freq = 0.019338     beta(X;Y,Z) = beta(X,Z,Y)
@ B-freq = 0.019338  C-freq = 0.019338     beta(Y;Y,Z) = beta(Y,Z,Y)
@ B-freq = 0.019338  C-freq = 0.019338     beta(Z;Y,Z) = beta(Z,Z,Y)
@ B-freq = 0.038675  C-freq = 0.019338     beta(X;Y,Z) = beta(X,Z,Y)
@ B-freq = 0.038675  C-freq = 0.019338     beta(Y;Y,Z) = beta(Y,Z,Y)
@ B-freq = 0.038675  C-freq = 0.019338     beta(Z;Y,Z) = beta(Z,Z,Y)
@ B-freq = 0.000000  C-freq = 0.019338     beta(X;Z,Z) = beta(X,Z,Z)
@ B-freq = 0.000000  C-freq = 0.019338     beta(Y;Z,Z) = beta(Y,Z,Z)
@ B-freq = 0.000000  C-freq = 0.019338     beta(Z;Z,Z) = beta(Z,Z,Z)
@ B-freq = 0.019338  C-freq = 0.019338     beta(X;Z,Z) =    -32.17037009
@ B-freq = 0.019338  C-freq = 0.019338     beta(Y;Z,Z) =    -24.24139065
@ B-freq = 0.019338  C-freq = 0.019338     beta(Z;Z,Z) =     -0.00000000
@ B-freq = 0.038675  C-freq = 0.019338     beta(X;Z,Z) =    -35.07046593
@ B-freq = 0.038675  C-freq = 0.019338     beta(Y;Z,Z) =    -25.82326430
@ B-freq = 0.038675  C-freq = 0.019338     beta(Z;Z,Z) =     -0.00000000
@ B-freq = 0.000000  C-freq = 0.038675     beta(X;X,Z) = beta(X,Z,X)
@ B-freq = 0.000000  C-freq = 0.038675     beta(Y;X,Z) = beta(Y,Z,X)
@ B-freq = 0.000000  C-freq = 0.038675     beta(Z;X,Z) = beta(Z,Z,X)
@ B-freq = 0.019338  C-freq = 0.038675     beta(X;X,Z) = beta(X,Z,X)
@ B-freq = 0.019338  C-freq = 0.038675     beta(Y;X,Z) = beta(Y,Z,X)
@ B-freq = 0.019338  C-freq = 0.038675     beta(Z;X,Z) = beta(Z,Z,X)
@ B-freq = 0.038675  C-freq = 0.038675     beta(X;X,Z) = beta(X,Z,X)
@ B-freq = 0.038675  C-freq = 0.038675     beta(Y;X,Z) = beta(Y,Z,X)
@ B-freq = 0.038675  C-freq = 0.038675     beta(Z;X,Z) = beta(Z,Z,X)
@ B-freq = 0.000000  C-freq = 0.038675     beta(X;Y,Z) = beta(X,Z,Y)
@ B-freq = 0.000000  C-freq = 0.038675     beta(Y;Y,Z) = beta(Y,Z,Y)
@ B-freq = 0.000000  C-freq = 0.038675     beta(Z;Y,Z) = beta(Z,Z,Y)
@ B-freq = 0.019338  C-freq = 0.038675     beta(X;Y,Z) = beta(X,Z,Y)
@ B-freq = 0.019338  C-freq = 0.038675     beta(Y;Y,Z) = beta(Y,Z,Y)
@ B-freq = 0.019338  C-freq = 0.038675     beta(Z;Y,Z) = beta(Z,Z,Y)
@ B-freq = 0.038675  C-freq = 0.038675     beta(X;Y,Z) = beta(X,Z,Y)
@ B-freq = 0.038675  C-freq = 0.038675     beta(Y;Y,Z) = beta(Y,Z,Y)
@ B-freq = 0.038675  C-freq = 0.038675     beta(Z;Y,Z) = beta(Z,Z,Y)
@ B-freq = 0.000000  C-freq = 0.038675     beta(X;Z,Z) = beta(X,Z,Z)
@ B-freq = 0.000000  C-freq = 0.038675     beta(Y;Z,Z) = beta(Y,Z,Z)
@ B-freq = 0.000000  C-freq = 0.038675     beta(Z;Z,Z) = beta(Z,Z,Z)
@ B-freq = 0.019338  C-freq = 0.038675     beta(X;Z,Z) = beta(X,Z,Z)
@ B-freq = 0.019338  C-freq = 0.038675     beta(Y;Z,Z) = beta(Y,Z,Z)
@ B-freq = 0.019338  C-freq = 0.038675     beta(Z;Z,Z) = beta(Z,Z,Z)
@ B-freq = 0.038675  C-freq = 0.038675     beta(X;Z,Z) =    -39.78100278
@ B-freq = 0.038675  C-freq = 0.038675     beta(Y;Z,Z) =    -28.31942944
@ B-freq = 0.038675  C-freq = 0.038675     beta(Z;Z,Z) =     -0.00000000

  Total CPU  time used in RESPONSE:   1 hour  13 minutes 50 seconds
  Total wall time used in RESPONSE:   1 hour  14 minutes 11 seconds


                   .-------------------------------------------.
                   | End of Dynamic Property Section (RESPONS) |
                   `-------------------------------------------'

  Total CPU  time used in DALTON:   1 hour  23 minutes 35 seconds
  Total wall time used in DALTON:   1 hour  24 minutes  1 second 

 
     Date and time (Linux)  : Tue May  6 11:11:22 2025
     Host name              : xm048                                   
