

     ************************************************************************
     *************** Dalton - An Electronic Structure Program ***************
     ************************************************************************

    This is output from DALTON release Dalton2020.0 (2020)
         ( Web site: http://daltonprogram.org )

   ----------------------------------------------------------------------------

    NOTE:
     
    Dalton is an experimental code for the evaluation of molecular
    properties using (MC)SCF, DFT, CI, and CC wave functions.
    The authors accept no responsibility for the performance of
    the code or for the correctness of the results.
     
    The code (in whole or part) is provided under a licence and
    is not to be reproduced for further distribution without
    the written permission of the authors or their representatives.
     
    See the home page "http://daltonprogram.org" for further information.
     
    If results obtained with this code are published,
    the appropriate citations would be both of:
     
       K. Aidas, C. Angeli, K. L. Bak, V. Bakken, R. Bast,
       L. Boman, O. Christiansen, R. Cimiraglia, S. Coriani,
       P. Dahle, E. K. Dalskov, U. Ekstroem,
       T. Enevoldsen, J. J. Eriksen, P. Ettenhuber, B. Fernandez,
       L. Ferrighi, H. Fliegl, L. Frediani, K. Hald, A. Halkier,
       C. Haettig, H. Heiberg, T. Helgaker, A. C. Hennum,
       H. Hettema, E. Hjertenaes, S. Hoest, I.-M. Hoeyvik,
       M. F. Iozzi, B. Jansik, H. J. Aa. Jensen, D. Jonsson,
       P. Joergensen, J. Kauczor, S. Kirpekar,
       T. Kjaergaard, W. Klopper, S. Knecht, R. Kobayashi, H. Koch,
       J. Kongsted, A. Krapp, K. Kristensen, A. Ligabue,
       O. B. Lutnaes, J. I. Melo, K. V. Mikkelsen, R. H. Myhre,
       C. Neiss, C. B. Nielsen, P. Norman, J. Olsen,
       J. M. H. Olsen, A. Osted, M. J. Packer, F. Pawlowski,
       T. B. Pedersen, P. F. Provasi, S. Reine, Z. Rinkevicius,
       T. A. Ruden, K. Ruud, V. Rybkin, P. Salek, C. C. M. Samson,
       A. Sanchez de Meras, T. Saue, S. P. A. Sauer,
       B. Schimmelpfennig, K. Sneskov, A. H. Steindal,
       K. O. Sylvester-Hvid, P. R. Taylor, A. M. Teale,
       E. I. Tellgren, D. P. Tew, A. J. Thorvaldsen, L. Thoegersen,
       O. Vahtras, M. A. Watson, D. J. D. Wilson, M. Ziolkowski
       and H. Agren,
       "The Dalton quantum chemistry program system",
       WIREs Comput. Mol. Sci. 2014, 4:269–284 (doi: 10.1002/wcms.1172)
     
    and
     
       Dalton, a molecular electronic structure program,
       Release Dalton2020.0 (2020), see http://daltonprogram.org
   ----------------------------------------------------------------------------

    Authors in alphabetical order (Major contribution(s) in parenthesis):

  Kestutis Aidas,           Vilnius University,           Lithuania   (QM/MM)
  Celestino Angeli,         University of Ferrara,        Italy       (NEVPT2)
  Keld L. Bak,              UNI-C,                        Denmark     (AOSOPPA, non-adiabatic coupling, magnetic properties)
  Vebjoern Bakken,          University of Oslo,           Norway      (DALTON; geometry optimizer, symmetry detection)
  Radovan Bast,             UiT The Arctic U. of Norway,  Norway      (DALTON installation and execution frameworks)
  Pablo Baudin,             University of Valencia,       Spain       (Cholesky excitation energies)
  Linus Boman,              NTNU,                         Norway      (Cholesky decomposition and subsystems)
  Bruno N. Cabral Tenorio,  Technical Univ. of Denmark,   Denmark     (Lanczos-based CC methods)
  Ove Christiansen,         Aarhus University,            Denmark     (CC module)
  Renzo Cimiraglia,         University of Ferrara,        Italy       (NEVPT2)
  Sonia Coriani,            Technical Univ. of Denmark,   Denmark     (CC and RESPONS modules)
  Janusz Cukras,            University of Warsaw,         Poland      (MChD in RESPONS)
  Paal Dahle,               University of Oslo,           Norway      (Parallelization)
  Erik K. Dalskov,          UNI-C,                        Denmark     (SOPPA)
  Thomas Enevoldsen,        Univ. of Southern Denmark,    Denmark     (SOPPA)
  Janus J. Eriksen,         Aarhus University,            Denmark     (Polarizable embedding, TDA)
  Rasmus Faber,             Technical Univ. of Denmark,   Denmark     (Vib.avg. NMR w. SOPPA, parallel AO-SOPPA, CVS-CC and EOMCC)
  Tobias Fahleson,          KTH Stockholm,                Sweden      (Damped cubic response)
  Berta Fernandez,          U. of Santiago de Compostela, Spain       (Doublet spin, ESR in RESPONS)
  Lara Ferrighi,            Aarhus University,            Denmark     (PCM Cubic response)
  Heike Fliegl,             University of Oslo,           Norway      (CCSD(R12))
  Luca Frediani,            UiT The Arctic U. of Norway,  Norway      (PCM)
  Emmanuel Fromager,        Univ. Strasbourg,             France      (MC-srDFT)
  Bin Gao,                  UiT The Arctic U. of Norway,  Norway      (Gen1Int library)
  Andre S. P. Gomes,        CNRS/Universite de Lille,     France      (Frozen density embedding)
  Christof Haettig,         Ruhr-University Bochum,       Germany     (CC module)
  Kasper Hald,              Aarhus University,            Denmark     (CC module)
  Asger Halkier,            Aarhus University,            Denmark     (CC module)
  Frederik Beyer Hansen,    University of Copenhagen,     Denmark     (Parallel AO-SOPPA)
  Erik D. Hedegaard,        Univ. of Southern Denmark,    Denmark     (Polarizable embedding, QM/MM, and MC-srDFT)
  Hanne Heiberg,            University of Oslo,           Norway      (Geometry analysis, selected one-electron integrals)
  Trygve Helgaker,          University of Oslo,           Norway      (DALTON; ABACUS, ERI, DFT modules, London, and much more)
  Alf Christian Hennum,     University of Oslo,           Norway      (Parity violation)
  Hinne Hettema,            University of Auckland,       New Zealand (Quadratic response in RESPONS; SIRIUS supersymmetry)
  Eirik Hjertenaes,         NTNU,                         Norway      (Cholesky decomposition)
  Pi A. B. Haase,           University of Copenhagen,     Denmark     (Triplet AO-SOPPA)
  Maria Francesca Iozzi,    University of Oslo,           Norway      (RPA)
  Christoph Jacob           TU Braunschweig               Germany     (Frozen density embedding)
  Brano Jansik              Technical Univ. of Ostrava    Czech Rep.  (DFT cubic response)
  Hans Joergen Aa. Jensen,  Univ. of Southern Denmark,    Denmark     (DALTON; SIRIUS, RESPONS, ABACUS, MC-srDFT, and much more)
  Dan Jonsson,              UiT The Arctic U. of Norway,  Norway      (Cubic response in RESPONS module)
  Poul Joergensen,          Aarhus University,            Denmark     (RESPONS, ABACUS, and CC modules)
  Maciej Kaminski,          University of Warsaw,         Poland      (CPPh in RESPONS)
  Joanna Kauczor,           Linkoeping University,        Sweden      (Complex polarization propagator (CPP) module)
  Sheela Kirpekar,          Univ. of Southern Denmark,    Denmark     (Mass-velocity & Darwin integrals)
  Erik Kjellgren,           Univ. of Southern Denmark,    Denmark     (MC-srDFT)
  Wim Klopper,              KIT Karlsruhe,                Germany     (R12 code in CC, SIRIUS, and ABACUS modules)
  Stefan Knecht,            ETH Zurich,                   Switzerland (Parallel CI and MCSCF, MC-srDFT)
  Rika Kobayashi,           Australian National Univ.,    Australia   (DIIS in CC, London in MCSCF)
  Henrik Koch,              NTNU,                         Norway      (CC module, Cholesky decomposition)
  Jacob Kongsted,           Univ. of Southern Denmark,    Denmark     (Polarizable embedding, polarizable density embedding, QM/MM)
  Andrea Ligabue,           University of Modena,         Italy       (CTOCD, AOSOPPA)
  Nanna H. List             Univ. of Southern Denmark,    Denmark     (Polarizable embedding)
  Ola B. Lutnaes,           University of Oslo,           Norway      (DFT Hessian)
  Juan I. Melo,             University of Buenos Aires,   Argentina   (LRESC, Relativistic Effects on NMR Shieldings)
  Kurt V. Mikkelsen,        University of Copenhagen,     Denmark     (MC-SCRF and QM/MM)
  Rolf H. Myhre,            NTNU,                         Norway      (Subsystems and CC3)
  Christian Neiss,          Univ. Erlangen-Nuernberg,     Germany     (CCSD(R12))
  Christian B. Nielsen,     University of Copenhagen,     Denmark     (QM/MM)
  Patrick Norman,           KTH Stockholm,                Sweden      (Cubic response and complex frequency response in RESPONS)
  Jeppe Olsen,              Aarhus University,            Denmark     (SIRIUS CI/density modules)
  Jogvan Magnus H. Olsen,   Aarhus University,            Denmark     (Polarizable embedding and polarizable density embedding)
  Anders Osted,             Copenhagen University,        Denmark     (QM/MM)
  Martin J. Packer,         University of Sheffield,      UK          (SOPPA)
  Filip Pawlowski,          Kazimierz Wielki University,  Poland      (CC3)
  Morten N. Pedersen,       Univ. of Southern Denmark,    Denmark     (Polarizable embedding)
  Thomas B. Pedersen,       University of Oslo,           Norway      (Cholesky decomposition)
  Patricio F. Provasi,      University of Northeastern,   Argentina   (Analysis of coupling constants in localized orbitals)
  Peter Reinholdt,          Univ. of Southern Denmark,    Denmark     (Polarizable embedding and polarizable density embedding)
  Zilvinas Rinkevicius,     KTH Stockholm,                Sweden      (open-shell DFT, ESR)
  Elias Rudberg,            KTH Stockholm,                Sweden      (DFT grid and basis info)
  Torgeir A. Ruden,         University of Oslo,           Norway      (Numerical derivatives in ABACUS)
  Kenneth Ruud,             UiT The Arctic U. of Norway,  Norway      (DALTON; ABACUS magnetic properties and much more)
  Pawel Salek,              KTH Stockholm,                Sweden      (DALTON; DFT code)
  Claire C. M. Samson       University of Karlsruhe       Germany     (Boys localization, r12 integrals in ERI)
  Alfredo Sanchez de Meras, University of Valencia,       Spain       (CC module, Cholesky decomposition)
  Trond Saue,               Paul Sabatier University,     France      (direct Fock matrix construction)
  Stephan P. A. Sauer,      University of Copenhagen,     Denmark     (SOPPA(CCSD), SOPPA prop., AOSOPPA, vibrational g-factors)
  Bernd Schimmelpfennig,    Forschungszentrum Karlsruhe,  Germany     (AMFI module)
  Anna K. Schnack-Petersen, University of Copenhagen,     Denmark     (RPA(D) and HRPA(D) properties in AOSOPPA)
  Kristian Sneskov,         Aarhus University,            Denmark     (Polarizable embedding, QM/MM)
  Arnfinn H. Steindal,      UiT The Arctic U. of Norway,  Norway      (parallel QM/MM, polarizable embedding)
  Casper Steinmann,         Aalborg University,           Denmark     (QFIT, polarizable embedding)
  K. O. Sylvester-Hvid,     University of Copenhagen,     Denmark     (MC-SCRF)
  Peter R. Taylor,          VLSCI/Univ. of Melbourne,     Australia   (Symmetry handling ABACUS, integral transformation)
  Andrew M. Teale,          University of Nottingham,     England     (DFT-AC, DFT-D)
  David P. Tew,             University of Bristol,        England     (CCSD(R12))
  Julien Toulouse,          Sorbonne Univ.,               France      (MC-srDFT)
  Olav Vahtras,             KTH Stockholm,                Sweden      (Triplet response, spin-orbit, ESR, TDDFT, open-shell DFT)
  Lucas Visscher,           Vrije Universiteit Amsterdam, Netherlands (Frozen density embedding)
  David J. Wilson,          La Trobe University,          Australia   (DFT Hessian and DFT magnetizabilities)
  Hans Agren,               KTH Stockholm,                Sweden      (SIRIUS module, RESPONS, MC-SCRF solvation)
 --------------------------------------------------------------------------------

     Date and time (Linux)  : Tue May  6 05:13:14 2025
     Host name              : xm048                                   

 * Work memory size             :  1310720000 =  9.766 gigabytes.

 * Directories for basis set searches:
   1) /gpfs/projects/rjh/adrian/summer2025/beta_projects/raw_data/NLO/dalton/hf/n3/dipole
   2) /gpfs/projects/rjh/adrian/dalton/build/basis


Compilation information
-----------------------

 Who compiled             | ahurtado
 Host                     | milan2
 System                   | Linux-5.14.0-427.42.1.el9_4.x86_64
 CMake generator          | Unix Makefiles
 Processor                | x86_64
 64-bit integers          | OFF
 MPI                      | ON
 Fortran compiler         | /gpfs/software/openmpi/milan/gcc13.2/4.1.6/bin/mpi
                          | f90
 Fortran compiler version | GNU Fortran (GCC) 13.2.0
 C compiler               | /gpfs/software/openmpi/milan/gcc13.2/4.1.6/bin/mpi
                          | cc
 C compiler version       | gcc (GCC) 13.2.0
 C++ compiler             | /gpfs/software/openmpi/milan/gcc13.2/4.1.6/bin/mpi
                          | cxx
 C++ compiler version     | unknown
 BLAS                     | /gpfs/software/intel/oneAPI/2024_2/mkl/2024.2/lib/
                          | intel64/libmkl_gf_lp64.so;/gpfs/software/intel/one
                          | API/2024_2/mkl/2024.2/lib/intel64/libmkl_sequentia
                          | l.so;/gpfs/software/intel/oneAPI/2024_2/mkl/2024.2
                          | /lib/intel64/libmkl_core.so;/usr/lib64/libpthread.
                          | a;/usr/lib64/libm.so
 LAPACK                   | /gpfs/software/intel/oneAPI/2024_2/mkl/2024.2/lib/
                          | intel64/libmkl_lapack95_lp64.a;/gpfs/software/inte
                          | l/oneAPI/2024_2/mkl/2024.2/lib/intel64/libmkl_gf_l
                          | p64.so
 Static linking           | OFF
 Last Git revision        | 66052b3af5ea7225e31178bf9a8b031913c72190
 Git branch               | (HEAD detached at Dalton2020.0)
 Configuration time       | 2025-04-10 16:02:31.569498

 * MPI parallel run using 96 processes.


   Content of the .dal input file
 ----------------------------------

**DALTON INPUT
.RUN RESPONSE
.DIRECT
**WAVE FUNCTIONS
.HF
**PROPERTIES
**RESPONSE
*QUADRA
.DIPLEN
.FREQUENCIES
3
0.0 0.019337625 0.03867525
**END OF DALTON INPUT


   Content of the .mol file
 ----------------------------

BASIS
aug-cc-pVDZ
blah
blah
Atomtype=4 Angstrom Charge=0 Nosymmetry
Charge=6 Atoms=6
C_a 3.5837590001880586 1.689807997561741 0.0
C_b 2.218342998768872 1.7965149998534866 0.0
C_c 1.3696039998245548 0.6327549976112581 0.0
C_d 0.0 0.6496800004299873 0.0
C_e -0.7822710021759658 -0.5644059981134033 0.0
C_f -2.135866999786617 -0.5945379993769223 0.0
Charge=7 Atoms=2
N_a 4.474126999726809 2.724384999838376 0.0
N_b -2.8592999997239983 -1.8575000010382903 0.0
Charge=8 Atoms=2
O_a -2.221885998947471 -2.9141560016617842 0.0
O_b -4.093871998581652 -1.7679050022079805 0.0
Charge=1 Atoms=8
H_a 4.045026999956447 0.6942230000033286 0.0
H_b 1.7506710022323968 2.7899280001342484 0.0
H_c 4.154989997874813 3.6838820007917366 0.0
H_d 5.468287002433469 2.5547250021906613 0.0
H_e 1.868681002197853 -0.3486340010462551 0.0
H_f -0.5281119981120097 1.6124769980950349 0.0
H_g -0.2588490011384542 -1.528719998671823 0.0
H_h -2.799823000128213 0.27152800243775366 0.0


       *******************************************************************
       *********** Output from DALTON general input processing ***********
       *******************************************************************

 --------------------------------------------------------------------------------
   Overall default print level:    0
   Print level for DALTON.STAT:    1

    Parallel calculation using MPI
    AO-direct calculation (in sections where implemented)
    HERMIT 1- and 2-electron integral sections will be executed
    "Old" integral transformation used (limited to max 255 basis functions)
    Wave function sections will be executed (SIRIUS module)
    Dynamic molecular response properties section will be executed (RESPONSE module)
 --------------------------------------------------------------------------------


   ****************************************************************************
   *************** Output of molecule and basis set information ***************
   ****************************************************************************


    The two title cards from your ".mol" input:
    ------------------------------------------------------------------------
 1: blah                                                                    
 2: blah                                                                    
    ------------------------------------------------------------------------

  Coordinates are entered in Angstrom and converted to atomic units.
          - Conversion factor : 1 bohr = 0.52917721 A

  Atomic type no.    1
  --------------------
  Nuclear charge:   6.00000
  Number of symmetry independent centers:    6
  Number of basis sets to read;    2
  Basis set file used for this atomic type with Z =   6 :
     "/gpfs/projects/rjh/adrian/dalton/build/basis/aug-cc-pVDZ"

  Atomic type no.    2
  --------------------
  Nuclear charge:   7.00000
  Number of symmetry independent centers:    2
  Number of basis sets to read;    2
  Basis set file used for this atomic type with Z =   7 :
     "/gpfs/projects/rjh/adrian/dalton/build/basis/aug-cc-pVDZ"

  Atomic type no.    3
  --------------------
  Nuclear charge:   8.00000
  Number of symmetry independent centers:    2
  Number of basis sets to read;    2
  Basis set file used for this atomic type with Z =   8 :
     "/gpfs/projects/rjh/adrian/dalton/build/basis/aug-cc-pVDZ"

  Atomic type no.    4
  --------------------
  Nuclear charge:   1.00000
  Number of symmetry independent centers:    8
  Number of basis sets to read;    2
  Basis set file used for this atomic type with Z =   1 :
     "/gpfs/projects/rjh/adrian/dalton/build/basis/aug-cc-pVDZ"


                         SYMGRP: Point group information
                         -------------------------------

@    Point group: C1 


                                 Isotopic Masses
                                 ---------------

                           C_a        12.000000
                           C_b        12.000000
                           C_c        12.000000
                           C_d        12.000000
                           C_e        12.000000
                           C_f        12.000000
                           N_a        14.003074
                           N_b        14.003074
                           O_a        15.994915
                           O_b        15.994915
                           H_a         1.007825
                           H_b         1.007825
                           H_c         1.007825
                           H_d         1.007825
                           H_e         1.007825
                           H_f         1.007825
                           H_g         1.007825
                           H_h         1.007825

                       Total mass:   140.058578 amu
                       Natural abundance:  92.331 %

 Center-of-mass coordinates (a.u.):   -0.182911   -0.129889    0.000000
 Center-of-mass coordinates (Angs):   -0.096792   -0.068734    0.000000


  Atoms and basis sets
  --------------------

  Number of atom types :    4
  Total number of atoms:   18

  Basis set used is "aug-cc-pVDZ" from the basis set library.

  label    atoms   charge   prim   cont     basis
  ----------------------------------------------------------------------
  C_          6    6.0000    35    23      [10s5p2d|4s3p2d]                                   
  N_          2    7.0000    35    23      [10s5p2d|4s3p2d]                                   
  O_          2    8.0000    35    23      [10s5p2d|4s3p2d]                                   
  H_          8    1.0000    11     9      [5s2p|3s2p]                                        
  ----------------------------------------------------------------------
  total:     18   74.0000   438   302
  ----------------------------------------------------------------------
  Spherical harmonic basis used.

  Threshold for neglecting AO integrals:  1.00D-12

  Max    interatomic separation is   10.4938 Angstrom (   19.8304 Bohr)
  between atoms   14 and   10, "H_d   " and "O_b   ".

  Min HX interatomic separation is    1.0085 Angstrom (    1.9059 Bohr)

  Min YX interatomic separation is    1.2340 Angstrom (    2.3320 Bohr)


  Bond distances (Angstrom):
  --------------------------

                  atom 1     atom 2       distance
                  ------     ------       --------
  bond distance:  C_b        C_a          1.369579
  bond distance:  C_c        C_b          1.440380
  bond distance:  C_d        C_c          1.369709
  bond distance:  C_e        C_d          1.444283
  bond distance:  C_f        C_e          1.353931
  bond distance:  N_a        C_a          1.364956
  bond distance:  N_b        C_f          1.455482
  bond distance:  O_a        N_b          1.234025
  bond distance:  O_b        N_b          1.237819
  bond distance:  H_a        C_a          1.097250
  bond distance:  H_b        C_b          1.097992
  bond distance:  H_c        N_a          1.011179
  bond distance:  H_d        N_a          1.008533
  bond distance:  H_e        C_c          1.101001
  bond distance:  H_f        C_d          1.098126
  bond distance:  H_g        C_e          1.097211
  bond distance:  H_h        C_f          1.091287


  Bond angles (degrees):
  ----------------------

                  atom 1     atom 2     atom 3         angle
                  ------     ------     ------         -----
  bond angle:     C_b        C_a        N_a          126.247
  bond angle:     C_b        C_a        H_a          119.327
  bond angle:     N_a        C_a        H_a          114.425
  bond angle:     C_a        C_b        C_c          121.635
  bond angle:     C_a        C_b        H_b          119.678
  bond angle:     C_c        C_b        H_b          118.687
  bond angle:     C_b        C_c        C_d          125.396
  bond angle:     C_b        C_c        H_e          116.941
  bond angle:     C_d        C_c        H_e          117.663
  bond angle:     C_c        C_d        C_e          122.087
  bond angle:     C_c        C_d        H_f          119.454
  bond angle:     C_e        C_d        H_f          118.460
  bond angle:     C_d        C_e        C_f          124.070
  bond angle:     C_d        C_e        H_g          118.712
  bond angle:     C_f        C_e        H_g          117.218
  bond angle:     C_e        C_f        N_b          121.080
  bond angle:     C_e        C_f        H_h          126.200
  bond angle:     N_b        C_f        H_h          112.721
  bond angle:     C_a        N_a        H_c          120.887
  bond angle:     C_a        N_a        H_d          121.031
  bond angle:     H_c        N_a        H_d          118.082
  bond angle:     C_f        N_b        O_a          119.096
  bond angle:     C_f        N_b        O_b          115.654
  bond angle:     O_a        N_b        O_b          125.251




 Principal moments of inertia (u*A**2) and principal axes
 --------------------------------------------------------

   IA      61.539950          0.851426    0.524475    0.000000
   IB    1517.728391         -0.524475    0.851426    0.000000
   IC    1579.268341          0.000000    0.000000    1.000000


 Rotational constants
 --------------------

@    The molecule is planar.

               A                   B                   C

           8212.2102            332.9838            320.0083 MHz
            0.273930            0.011107            0.010674 cm-1


@  Nuclear repulsion energy :  451.042870482930 Hartree


                     .---------------------------------------.
                     | Starting in Integral Section (HERMIT) |
                     `---------------------------------------'



 ***************************************************************************************
 ****************** Output from **INTEGRALS input processing (HERMIT) ******************
 ***************************************************************************************


 - Using defaults, no **INTEGRALS input found

 Default print level:        1

 Calculation of one-electron Hamiltonian integrals.

 Center of mass  (bohr):     -0.182910683850     -0.129888666044      0.000000000000
 Operator center (bohr):      0.000000000000      0.000000000000      0.000000000000
 Gauge origin    (bohr):      0.000000000000      0.000000000000      0.000000000000
 Dipole origin   (bohr):      0.000000000000      0.000000000000      0.000000000000


     ************************************************************************
     ************************** Output from HERINT **************************
     ************************************************************************



                      Nuclear contribution to dipole moments
                      --------------------------------------

                 au               Debye          C m (/(10**-30)

      x      0.00000946         0.00002404         0.00008021
      y     -0.00000009        -0.00000023        -0.00000076
      z      0.00000000         0.00000000         0.00000000


  Time used in ONEDRV     is       0.19 seconds
  Time used in GABGEN     is       0.17 seconds
  Total CPU  time used in HERMIT:   0.79 seconds
  Total wall time used in HERMIT:   0.81 seconds


                        .----------------------------------.
                        | End of Integral Section (HERMIT) |
                        `----------------------------------'



                   .--------------------------------------------.
                   | Starting in Wave Function Section (SIRIUS) |
                   `--------------------------------------------'


 *** Output from Huckel module :

     Using EWMO model:          T
     Using EHT  model:          F
     Number of Huckel orbitals each symmetry:   58

 EWMO - Energy Weighted Maximum Overlap - is a Huckel type method,
        which normally is better than Extended Huckel Theory.
 Reference: Linderberg and Ohrn, Propagators in Quantum Chemistry (Wiley, 1973)

 Huckel EWMO eigenvalues for symmetry :  1
          -20.684750     -20.683474     -15.677071     -15.675001     -11.359082
          -11.357415     -11.353225     -11.347774     -11.345861     -11.345413
           -1.964419      -1.783424      -1.682928      -1.470831      -1.433671
           -1.201513      -1.142494      -0.977556      -0.959778      -0.851863
           -0.830674      -0.777499      -0.732006      -0.723226      -0.674592
           -0.618895      -0.617907      -0.585176      -0.569349      -0.536174
           -0.521070      -0.494222      -0.489654      -0.485955      -0.476642
           -0.401925      -0.393268      -0.332908      -0.263469      -0.229215
           -0.220728      -0.201503      -0.199652      -0.190332      -0.166112
           -0.142690      -0.137254      -0.130788      -0.128057      -0.126733
           -0.125875      -0.122465      -0.106958      -0.101747      -0.091911
           -0.089595      -0.085067      -0.080563

 **********************************************************************
 *SIRIUS* a direct, restricted step, second order MCSCF program       *
 **********************************************************************

 
     Date and time (Linux)  : Tue May  6 05:13:16 2025
     Host name              : xm048                                   

 Title lines from ".mol" input file:
     blah                                                                    
     blah                                                                    

 Print level on unit LUPRI =   2 is   0
 Print level on unit LUW4  =   2 is   5

@    Restricted, closed shell Hartree-Fock calculation.

@    Time-dependent Hartree-Fock calculation (random phase approximation).
 Fock matrices are calculated directly and in parallel without use of integrals on disk.

 Initial molecular orbitals are obtained according to
 ".MOSTART EWMO  " input option

     Wave function specification
     ============================
@    Wave function type        --- HF ---
@    Number of closed shell electrons          74
@    Number of electrons in active shells       0
@    Total charge of the molecule               0

@    Spin multiplicity and 2 M_S                1         0
@    Total number of symmetries                 1 (point group: C1 )
@    Reference state symmetry                   1 (irrep name : A  )

     Orbital specifications
     ======================
@    Abelian symmetry species          All |    1
@                                          |  A  
                                       --- |  ---
@    Occupied SCF orbitals              37 |   37
@    Secondary orbitals                265 |  265
@    Total number of orbitals          302 |  302
@    Number of basis functions         302 |  302

     Optimization information
     ========================
@    Number of configurations                 1
@    Number of orbital rotations           9805
     ------------------------------------------
@    Total number of variables             9806

     Maximum number of Fock   iterations      0
     Maximum number of DIIS   iterations     60
     Maximum number of QC-SCF iterations     60
     Threshold for SCF convergence     1.00D-05

    INFORMATION: Switched to "new" integral transformation (from 1988 ;-) )
    because more than 255 basis functions.


 ***********************************************
 ***** DIIS acceleration of SCF iterations *****
 ***********************************************

 C1-DIIS algorithm; max error vectors =    8

 Iter      Total energy        Error norm    Delta(E)  DIIS dim.
 -----------------------------------------------------------------------------
   1  Screening settings (-IFTHRS, JTDIIS, DIFDEN, times)   -8    1    T  4.81D+00  4.84D+00
@  1    -488.347314101        5.54129D+00   -4.88D+02    1
      Virial theorem: -V/T =      2.005422
@    MULPOP   C_a     0.93; C_b    -0.14; C_c     0.50; C_d     0.20; C_e     0.20; C_f     0.73; N_a    -0.17; N_b     1.15; O_a    -1.13; O_b    -1.12; 
@             H_a    -0.19; H_b    -0.22; H_c     0.07; H_d     0.06; H_e    -0.22; H_f    -0.21; H_g    -0.24; H_h    -0.19; 
   1  Level shift: doubly occupied orbital energies shifted by -2.00D-01
 -----------------------------------------------------------------------------
   2  Screening settings (-IFTHRS, JTDIIS, DIFDEN, times)   -8    2    T  6.61D-01  6.66D-01
@  2    -489.999414941        2.68304D+00   -1.65D+00    2
      Virial theorem: -V/T =      2.002505
@    MULPOP   C_a     0.58; C_b     0.79; C_c     0.31; C_d     0.90; C_e     0.54; C_f     0.58; N_a    -0.19; N_b     0.19; O_a    -0.48; O_b    -0.42; 
@             H_a    -0.41; H_b    -0.53; H_c    -0.00; H_d     0.04; H_e    -0.48; H_f    -0.50; H_g    -0.53; H_h    -0.38; 
   2  Level shift: doubly occupied orbital energies shifted by -1.00D-01
 -----------------------------------------------------------------------------
   3  Screening settings (-IFTHRS, JTDIIS, DIFDEN, times)   -8    3    T  6.54D-01  6.59D-01
@  3    -490.355420500        5.95986D-01   -3.56D-01    3
      Virial theorem: -V/T =      2.001085
@    MULPOP   C_a     0.74; C_b     0.90; C_c     0.21; C_d     0.84; C_e     0.56; C_f     1.03; N_a    -0.32; N_b     0.73; O_a    -0.83; O_b    -0.87; 
@             H_a    -0.38; H_b    -0.58; H_c    -0.03; H_d     0.02; H_e    -0.53; H_f    -0.55; H_g    -0.59; H_h    -0.38; 
   3  Level shift: doubly occupied orbital energies shifted by -2.50D-02
 -----------------------------------------------------------------------------
   4  Screening settings (-IFTHRS, JTDIIS, DIFDEN, times)  -12    4    F  6.88D-01  6.94D-01
@  4    -490.382518277        2.13304D-01   -2.71D-02    4
      Virial theorem: -V/T =      2.002725
@    MULPOP   C_a     0.84; C_b     0.94; C_c     0.17; C_d     0.87; C_e     0.61; C_f     1.04; N_a    -0.33; N_b     0.59; O_a    -0.82; O_b    -0.82; 
@             H_a    -0.37; H_b    -0.60; H_c    -0.05; H_d    -0.00; H_e    -0.55; H_f    -0.56; H_g    -0.58; H_h    -0.35; 
   4  Level shift: doubly occupied orbital energies shifted by -1.25D-02
 -----------------------------------------------------------------------------
   5  Screening settings (-IFTHRS, JTDIIS, DIFDEN, times)  -12    5    T  6.83D-01  6.88D-01
@  5    -490.387657077        7.73212D-02   -5.14D-03    5
      Virial theorem: -V/T =      2.002262
@    MULPOP   C_a     0.79; C_b     0.94; C_c     0.14; C_d     0.92; C_e     0.51; C_f     1.09; N_a    -0.34; N_b     0.62; O_a    -0.82; O_b    -0.84; 
@             H_a    -0.36; H_b    -0.59; H_c    -0.05; H_d     0.00; H_e    -0.53; H_f    -0.55; H_g    -0.57; H_h    -0.35; 
 -----------------------------------------------------------------------------
   6  Screening settings (-IFTHRS, JTDIIS, DIFDEN, times)  -12    6    T  6.80D-01  6.86D-01
@  6    -490.388685634        3.41934D-02   -1.03D-03    6
      Virial theorem: -V/T =      2.002105
@    MULPOP   C_a     0.78; C_b     0.94; C_c     0.14; C_d     0.94; C_e     0.50; C_f     1.09; N_a    -0.35; N_b     0.60; O_a    -0.82; O_b    -0.83; 
@             H_a    -0.36; H_b    -0.59; H_c    -0.05; H_d     0.00; H_e    -0.53; H_f    -0.54; H_g    -0.56; H_h    -0.34; 
 -----------------------------------------------------------------------------
   7  Screening settings (-IFTHRS, JTDIIS, DIFDEN, times)  -12    7    T  6.83D-01  6.89D-01
@  7    -490.388922214        1.60332D-02   -2.37D-04    7
      Virial theorem: -V/T =      2.002147
@    MULPOP   C_a     0.78; C_b     0.94; C_c     0.13; C_d     0.95; C_e     0.48; C_f     1.10; N_a    -0.35; N_b     0.59; O_a    -0.81; O_b    -0.83; 
@             H_a    -0.36; H_b    -0.59; H_c    -0.05; H_d     0.00; H_e    -0.53; H_f    -0.54; H_g    -0.56; H_h    -0.34; 
 -----------------------------------------------------------------------------
   8  Screening settings (-IFTHRS, JTDIIS, DIFDEN, times)  -12    8    T  6.75D-01  6.80D-01
@  8    -490.388966101        6.17184D-03   -4.39D-05    8
      Virial theorem: -V/T =      2.002146
@    MULPOP   C_a     0.78; C_b     0.94; C_c     0.13; C_d     0.96; C_e     0.47; C_f     1.10; N_a    -0.35; N_b     0.59; O_a    -0.81; O_b    -0.83; 
@             H_a    -0.36; H_b    -0.59; H_c    -0.05; H_d     0.00; H_e    -0.53; H_f    -0.54; H_g    -0.56; H_h    -0.34; 
 -----------------------------------------------------------------------------
   9  Screening settings (-IFTHRS, JTDIIS, DIFDEN, times)  -12    9    T  6.72D-01  6.77D-01
@  9    -490.388972614        2.04454D-03   -6.51D-06    8
      Virial theorem: -V/T =      2.002136
@    MULPOP   C_a     0.79; C_b     0.94; C_c     0.13; C_d     0.96; C_e     0.47; C_f     1.10; N_a    -0.35; N_b     0.59; O_a    -0.81; O_b    -0.83; 
@             H_a    -0.36; H_b    -0.59; H_c    -0.05; H_d    -0.00; H_e    -0.53; H_f    -0.54; H_g    -0.56; H_h    -0.34; 
 -----------------------------------------------------------------------------
  10  Screening settings (-IFTHRS, JTDIIS, DIFDEN, times)  -12   10    T  6.70D-01  6.75D-01
@ 10    -490.388973565        1.02233D-03   -9.51D-07    8
      Virial theorem: -V/T =      2.002137
@    MULPOP   C_a     0.79; C_b     0.94; C_c     0.13; C_d     0.96; C_e     0.47; C_f     1.11; N_a    -0.35; N_b     0.59; O_a    -0.81; O_b    -0.83; 
@             H_a    -0.36; H_b    -0.59; H_c    -0.05; H_d    -0.00; H_e    -0.53; H_f    -0.54; H_g    -0.56; H_h    -0.34; 
 -----------------------------------------------------------------------------
  11  Screening settings (-IFTHRS, JTDIIS, DIFDEN, times)  -12   11    T  6.68D-01  6.73D-01
@ 11    -490.388973817        5.00638D-04   -2.53D-07    8
      Virial theorem: -V/T =      2.002137
@    MULPOP   C_a     0.79; C_b     0.94; C_c     0.13; C_d     0.95; C_e     0.47; C_f     1.10; N_a    -0.35; N_b     0.59; O_a    -0.81; O_b    -0.83; 
@             H_a    -0.36; H_b    -0.59; H_c    -0.05; H_d    -0.00; H_e    -0.53; H_f    -0.54; H_g    -0.56; H_h    -0.34; 
 -----------------------------------------------------------------------------
  12  Screening settings (-IFTHRS, JTDIIS, DIFDEN, times)  -12   12    T  6.64D-01  6.68D-01
@ 12    -490.388973891        1.38746D-04   -7.34D-08    8
      Virial theorem: -V/T =      2.002137
@    MULPOP   C_a     0.79; C_b     0.93; C_c     0.13; C_d     0.95; C_e     0.47; C_f     1.10; N_a    -0.35; N_b     0.59; O_a    -0.81; O_b    -0.83; 
@             H_a    -0.36; H_b    -0.59; H_c    -0.05; H_d    -0.00; H_e    -0.53; H_f    -0.54; H_g    -0.56; H_h    -0.34; 
 -----------------------------------------------------------------------------
  13  Screening settings (-IFTHRS, JTDIIS, DIFDEN, times)  -12   13    T  6.53D-01  6.58D-01
@ 13    -490.388973896        6.09288D-05   -5.33D-09    8
      Virial theorem: -V/T =      2.002137
@    MULPOP   C_a     0.79; C_b     0.93; C_c     0.13; C_d     0.95; C_e     0.47; C_f     1.10; N_a    -0.35; N_b     0.59; O_a    -0.81; O_b    -0.83; 
@             H_a    -0.36; H_b    -0.59; H_c    -0.05; H_d    -0.00; H_e    -0.53; H_f    -0.54; H_g    -0.56; H_h    -0.34; 
 -----------------------------------------------------------------------------
  14  Screening settings (-IFTHRS, JTDIIS, DIFDEN, times)  -12   14    T  6.46D-01  6.51D-01
@ 14    -490.388973896        1.98992D-05   -6.10D-10    8
      Virial theorem: -V/T =      2.002137
@    MULPOP   C_a     0.79; C_b     0.93; C_c     0.13; C_d     0.95; C_e     0.47; C_f     1.10; N_a    -0.35; N_b     0.59; O_a    -0.81; O_b    -0.83; 
@             H_a    -0.36; H_b    -0.59; H_c    -0.05; H_d    -0.00; H_e    -0.53; H_f    -0.54; H_g    -0.56; H_h    -0.34; 
 -----------------------------------------------------------------------------
  15  Screening settings (-IFTHRS, JTDIIS, DIFDEN, times)  -12   15    T  6.41D-01  6.45D-01
@ 15    -490.388973897        8.38951D-06   -6.89D-11    8

@ *** DIIS converged in  15 iterations !
@     Converged SCF energy, gradient:   -490.388973896527    8.39D-06
    - total time used in SIRFCK :              0.00 seconds


 *** SCF orbital energy analysis ***

 Only the 20 lowest virtual orbital energies printed in each symmetry.

 Number of electrons :   74
 Orbital occupations :   37

 Sym       Hartree-Fock orbital energies

1 A     -20.58961759   -20.58689725   -15.83772874   -15.61837156   -11.33108824
        -11.28920094   -11.28604526   -11.28316635   -11.25189156   -11.24820252
         -1.57589827    -1.37308879    -1.25912245    -1.13606434    -1.09376078
         -1.02383807    -0.93920230    -0.84641978    -0.80067503    -0.78162077
         -0.74777122    -0.72218000    -0.70750359    -0.69216211    -0.68905493
         -0.64260560    -0.60116189    -0.58525761    -0.55363144    -0.54154710
         -0.52691884    -0.47443678    -0.47277024    -0.47001700    -0.43317683
         -0.39324791    -0.28667516     0.01562194     0.02665467     0.03926288
          0.03940571     0.04841526     0.05958810     0.07333084     0.08858518
          0.09186435     0.10020752     0.10177782     0.10738601     0.11120016
          0.11421538     0.12129134     0.12140862     0.13344376     0.14043428
          0.14795863     0.15472771

    E(LUMO) :     0.01562194 au (symmetry 1)
  - E(HOMO) :    -0.28667516 au (symmetry 1)
  ------------------------------------------
    gap     :     0.30229710 au

 --- Writing SIRIFC interface file

 CPU and wall time for SCF :      17.417      17.608


                       .-----------------------------------.
                       | --- Final results from SIRIUS --- |
                       `-----------------------------------'


@    Spin multiplicity:           1
@    Spatial symmetry:            1 ( irrep  A   in C1  )
@    Total charge of molecule:    0

@    Final HF energy:            -490.388973896527                 
@    Nuclear repulsion:           451.042870482930
@    Electronic energy:          -941.431844379458

@    Final gradient norm:           0.000008389509

 
     Date and time (Linux)  : Tue May  6 05:13:34 2025
     Host name              : xm048                                   

File label for MO orbitals:   6May25   FOCKDIIS

 (Only coefficients > 0.0100 are printed.)

 Molecular orbitals for symmetry species 1  (A  )
 ------------------------------------------------

    Orbital        28       29       30       31       32       33       34
   2 C_a :1s    -0.0839  -0.0372  -0.0000   0.0298   0.0148   0.0000  -0.0021
   3 C_a :1s    -0.1488  -0.3214   0.0000  -0.0587  -0.0477  -0.0000   0.0171
   4 C_a :1s    -0.0032  -0.2154  -0.0000  -0.0686   0.0099   0.0000  -0.0232
   5 C_a :2px    0.3649   0.2043  -0.0000  -0.0696  -0.0224   0.0000   0.0047
   6 C_a :2py   -0.1647  -0.2190  -0.0000   0.0720  -0.0028   0.0000  -0.0006
   7 C_a :2pz   -0.0000   0.0000   0.4296  -0.0000  -0.0000  -0.0387  -0.0000
   8 C_a :2px    0.0117   0.0294  -0.0000   0.0822   0.0256   0.0000  -0.0027
   9 C_a :2py    0.0671  -0.0760   0.0000  -0.0004  -0.0265  -0.0000   0.0233
  10 C_a :2pz    0.0000  -0.0000  -0.0840   0.0000   0.0000   0.0150   0.0000
  11 C_a :2px    0.0272   0.0225   0.0000   0.0014  -0.0111  -0.0000  -0.0041
  12 C_a :2py    0.0331   0.0038  -0.0000  -0.0104  -0.0189   0.0000  -0.0181
  14 C_a :3d2-   0.0026  -0.0257  -0.0000   0.0181  -0.0023   0.0000   0.0007
  15 C_a :3d1-   0.0000   0.0000   0.0225   0.0000  -0.0000  -0.0093  -0.0000
  17 C_a :3d1+   0.0000  -0.0000   0.0046   0.0000  -0.0000  -0.0160   0.0000
  18 C_a :3d2+  -0.0200  -0.0149  -0.0000   0.0063   0.0004   0.0000  -0.0001
  19 C_a :3d2-   0.0051   0.0984  -0.0000  -0.0054   0.0129   0.0000  -0.0072
  20 C_a :3d1-  -0.0000   0.0000  -0.0370  -0.0000   0.0000   0.0069  -0.0000
  23 C_a :3d2+   0.0250   0.0366   0.0000  -0.0173  -0.0039  -0.0000  -0.0036
  25 C_b :1s     0.0453  -0.0135   0.0000   0.0633  -0.0182  -0.0000   0.0070
  26 C_b :1s     0.0695  -0.3933  -0.0000   0.0911  -0.0573   0.0000   0.0822
  27 C_b :1s     0.0332  -0.0624   0.0000   0.1425  -0.0912  -0.0000   0.0851
  28 C_b :2px   -0.4198  -0.1860   0.0000   0.0126   0.0332  -0.0000  -0.0104
  29 C_b :2py   -0.1136   0.3432  -0.0000  -0.3037   0.0311   0.0000  -0.0136
  30 C_b :2pz   -0.0000   0.0000   0.2832  -0.0000   0.0000   0.1574  -0.0000
  31 C_b :2px    0.2075   0.2802  -0.0000   0.1336   0.0541   0.0000  -0.0139
  32 C_b :2py   -0.0080   0.1761  -0.0000   0.0894   0.0424   0.0000  -0.0528
  33 C_b :2pz    0.0000  -0.0000  -0.0156   0.0000  -0.0000  -0.0146   0.0000
  34 C_b :2px   -0.0632   0.1022   0.0000   0.0443   0.0441  -0.0000   0.0687
  35 C_b :2py   -0.0393  -0.0301  -0.0000   0.0070   0.0383   0.0000  -0.0031
  37 C_b :3d2-   0.0023  -0.0242  -0.0000   0.0192  -0.0011   0.0000   0.0011
  38 C_b :3d1-  -0.0000  -0.0000  -0.0083   0.0000   0.0000  -0.0105  -0.0000
  40 C_b :3d1+  -0.0000  -0.0000   0.0159   0.0000  -0.0000  -0.0079  -0.0000
  41 C_b :3d2+  -0.0186  -0.0164  -0.0000   0.0175   0.0022   0.0000   0.0004
  42 C_b :3d2-  -0.0430   0.0834   0.0000  -0.0723   0.0066   0.0000  -0.0109
  43 C_b :3d1-   0.0000  -0.0000   0.0148   0.0000  -0.0000  -0.0041   0.0000
  44 C_b :3d0   -0.0022  -0.0147  -0.0000   0.0034  -0.0029   0.0000   0.0014
  45 C_b :3d1+   0.0000  -0.0000   0.0192   0.0000  -0.0000  -0.0034   0.0000
  46 C_b :3d2+   0.0450   0.1742  -0.0000  -0.0256   0.0164   0.0000  -0.0221
  48 C_c :1s    -0.0328  -0.0095  -0.0000   0.0774   0.0283   0.0000   0.0033
  49 C_c :1s     0.2060  -0.2615  -0.0000   0.2608  -0.0496   0.0000   0.1442
  50 C_c :1s     0.0131   0.0742   0.0000  -0.0479   0.2512  -0.0000   0.1107
  51 C_c :2px    0.2598  -0.0602   0.0000  -0.1482  -0.0697  -0.0000  -0.0060
  52 C_c :2py    0.2555  -0.2152   0.0000   0.3633  -0.0244  -0.0000   0.0203
  53 C_c :2pz    0.0000   0.0000   0.1515  -0.0000   0.0000   0.3559   0.0000
  54 C_c :2px   -0.0827   0.5506  -0.0000   0.0867   0.1221   0.0000  -0.1322
  55 C_c :2py    0.0490   0.2398  -0.0000   0.0792   0.0292   0.0000  -0.0115
  56 C_c :2pz   -0.0000  -0.0000   0.0040   0.0000  -0.0000  -0.0298  -0.0000
  57 C_c :2px    0.0522   0.0316  -0.0000  -0.0157  -0.0556   0.0000  -0.1469
  58 C_c :2py   -0.0072   0.0881   0.0000  -0.0809   0.0521  -0.0000  -0.0772
  60 C_c :3d2-   0.0180  -0.0052  -0.0000   0.0369  -0.0044   0.0000   0.0038
  63 C_c :3d1+  -0.0000   0.0000   0.0026  -0.0000   0.0000  -0.0179  -0.0000
  64 C_c :3d2+  -0.0167  -0.0145   0.0000   0.0178   0.0019  -0.0000   0.0012
  65 C_c :3d2-  -0.1086   0.1146   0.0000  -0.0993   0.0317  -0.0000  -0.0486
  67 C_c :3d0    0.0013  -0.0040  -0.0000   0.0107  -0.0012   0.0000   0.0029
  68 C_c :3d1+  -0.0000  -0.0000  -0.0132   0.0000   0.0000   0.0010   0.0000
  69 C_c :3d2+   0.0120  -0.0562  -0.0000  -0.0869  -0.0343   0.0000   0.0087
  71 C_d :1s    -0.0620  -0.0042  -0.0000   0.0391  -0.0361  -0.0000   0.0080
  72 C_d :1s     0.0872   0.3647   0.0000   0.2795   0.1042   0.0000   0.0672
  73 C_d :1s     0.0526  -0.0311  -0.0000   0.0375  -0.1289   0.0000  -0.2366
  74 C_d :2px   -0.2269   0.0005  -0.0000   0.1660   0.0860   0.0000   0.0003
  75 C_d :2py   -0.1669  -0.2236   0.0000  -0.3631   0.0597  -0.0000  -0.0620
  76 C_d :2pz    0.0000  -0.0000   0.0954  -0.0000  -0.0000   0.4348   0.0000
  77 C_d :2px   -0.1066   0.5214  -0.0000  -0.0244   0.1038   0.0000  -0.1963
  78 C_d :2py   -0.1106   0.1656  -0.0000  -0.0498   0.0078   0.0000  -0.1192
  79 C_d :2pz   -0.0000   0.0000  -0.0266  -0.0000   0.0000  -0.0139  -0.0000
  80 C_d :2px   -0.0823  -0.0396  -0.0000   0.0426  -0.0964   0.0000   0.0571
  81 C_d :2py   -0.0334   0.0565   0.0000   0.0882  -0.0198  -0.0000   0.0972
  83 C_d :3d2-   0.0161   0.0070   0.0000   0.0369  -0.0025  -0.0000   0.0035
  84 C_d :3d1-   0.0000   0.0000  -0.0023  -0.0000   0.0000  -0.0139   0.0000
  86 C_d :3d1+   0.0000   0.0000   0.0058  -0.0000   0.0000   0.0102   0.0000
  87 C_d :3d2+  -0.0179   0.0146   0.0000   0.0154   0.0058  -0.0000   0.0009
  88 C_d :3d2-  -0.0671  -0.1492   0.0000  -0.1257  -0.0120  -0.0000   0.0145
  92 C_d :3d2+  -0.0106   0.0248   0.0000  -0.0886   0.0016  -0.0000  -0.0470
  94 C_e :1s     0.0852   0.0143   0.0000   0.0858   0.0191  -0.0000  -0.0549
  95 C_e :1s    -0.0371   0.4110  -0.0000   0.1474   0.1740   0.0000  -0.0943
  96 C_e :1s     0.0019   0.0102   0.0000   0.0632  -0.1817  -0.0000   0.3298
  97 C_e :2px    0.3643  -0.2037  -0.0000  -0.0383  -0.1382  -0.0000   0.0391
  98 C_e :2py    0.0717   0.3187  -0.0000   0.3067  -0.0422   0.0000   0.0834
  99 C_e :2pz   -0.0000  -0.0000   0.0458   0.0000  -0.0000   0.3802  -0.0000
 100 C_e :2px   -0.2282   0.1230  -0.0000  -0.1271  -0.0557  -0.0000  -0.1065
 101 C_e :2py   -0.0709   0.1838  -0.0000  -0.0482   0.0334   0.0000  -0.1884
 102 C_e :2pz   -0.0000   0.0000  -0.0029  -0.0000  -0.0000  -0.0355   0.0000
 103 C_e :2px    0.0052   0.1416   0.0000   0.0124   0.0802  -0.0000  -0.1325
 104 C_e :2py    0.0186  -0.0074   0.0000   0.0129  -0.0070  -0.0000   0.0024
 106 C_e :3d2-  -0.0065   0.0244   0.0000   0.0220  -0.0108  -0.0000   0.0018
 107 C_e :3d1-   0.0000   0.0000   0.0029  -0.0000   0.0000   0.0143   0.0000
 110 C_e :3d2+  -0.0183   0.0141  -0.0000   0.0156   0.0045   0.0000  -0.0039
 111 C_e :3d2-  -0.0064  -0.1252  -0.0000  -0.0858  -0.0131   0.0000  -0.0225
 113 C_e :3d0   -0.0073   0.0138   0.0000   0.0053   0.0037  -0.0000  -0.0017
 115 C_e :3d2+   0.0890  -0.1517   0.0000  -0.0357  -0.0169  -0.0000   0.0454
 117 C_f :1s    -0.0807   0.0040  -0.0000  -0.0018  -0.1005   0.0000  -0.0006
 118 C_f :1s    -0.2156   0.2117  -0.0000  -0.0426  -0.0312  -0.0000  -0.1306
 119 C_f :1s    -0.1044   0.2335   0.0000   0.0681   0.2067   0.0000  -0.2640
 120 C_f :2px   -0.2980   0.2251   0.0000   0.0977   0.1799  -0.0000  -0.0540
 121 C_f :2py    0.1418  -0.1311  -0.0000  -0.0508   0.2710   0.0000   0.1171
 122 C_f :2pz   -0.0000  -0.0000   0.0255   0.0000  -0.0000   0.2952  -0.0000
 123 C_f :2px    0.0113  -0.0696  -0.0000  -0.1083  -0.1422   0.0000   0.0142
 124 C_f :2py   -0.0485  -0.0831  -0.0000  -0.0299  -0.0907   0.0000  -0.0406
 126 C_f :2px   -0.0526   0.0113   0.0000  -0.0021   0.0119  -0.0000  -0.0394
 127 C_f :2py   -0.0238  -0.0239  -0.0000  -0.0107  -0.0475   0.0000   0.0246
 128 C_f :2pz   -0.0000  -0.0000  -0.0013   0.0000   0.0000   0.0187  -0.0000
 129 C_f :3d2-  -0.0061   0.0239  -0.0000   0.0189  -0.0187   0.0000  -0.0026
 132 C_f :3d1+   0.0000  -0.0000   0.0022   0.0000  -0.0000   0.0190   0.0000
 133 C_f :3d2+  -0.0100   0.0044   0.0000   0.0015   0.0128  -0.0000  -0.0026
 134 C_f :3d2-   0.0283  -0.0864   0.0000  -0.0170   0.0180  -0.0000   0.0339
 137 C_f :3d1+  -0.0000   0.0000  -0.0004   0.0000   0.0000   0.0119  -0.0000
 138 C_f :3d2+   0.0005  -0.0125  -0.0000  -0.0184  -0.0543   0.0000  -0.0025
 140 N_a :1s     0.0187  -0.0428  -0.0000   0.0260  -0.0067   0.0000   0.0018
 141 N_a :1s    -0.0132  -0.0128   0.0000  -0.0088  -0.0011   0.0000  -0.0039
 142 N_a :1s    -0.0032   0.0394  -0.0000  -0.0051  -0.0067   0.0000  -0.0074
 143 N_a :2px   -0.1842  -0.0045   0.0000  -0.0244   0.0123  -0.0000  -0.0030
 144 N_a :2py    0.0696   0.1169   0.0000  -0.0386   0.0067  -0.0000  -0.0008
 145 N_a :2pz    0.0000  -0.0000   0.6308   0.0000  -0.0000  -0.2793  -0.0000
 146 N_a :2px    0.0377  -0.0050   0.0000  -0.0020  -0.0049  -0.0000   0.0028
 147 N_a :2py   -0.0137  -0.0178  -0.0000   0.0057  -0.0020   0.0000   0.0007
 148 N_a :2pz   -0.0000   0.0000   0.0433  -0.0000   0.0000  -0.0227   0.0000
 151 N_a :2pz    0.0000  -0.0000   0.0423   0.0000  -0.0000  -0.0291  -0.0000
 156 N_a :3d2+  -0.0154  -0.0101   0.0000   0.0029   0.0006  -0.0000  -0.0002
 158 N_a :3d1-   0.0000   0.0000  -0.0169  -0.0000   0.0000   0.0029   0.0000
 160 N_a :3d1+   0.0000   0.0000  -0.0143  -0.0000   0.0000   0.0036  -0.0000
 161 N_a :3d2+   0.0181   0.0066   0.0000   0.0045  -0.0000  -0.0000  -0.0004
 163 N_b :1s     0.0148   0.0293  -0.0000   0.0237  -0.0209  -0.0000  -0.0011
 164 N_b :1s    -0.0171   0.0030  -0.0000  -0.0157  -0.0644   0.0000  -0.0194
 165 N_b :1s     0.0013  -0.0908   0.0000  -0.0789  -0.0844  -0.0000   0.0261
 166 N_b :2px    0.0835   0.0046  -0.0000   0.0256  -0.1346   0.0000  -0.1058
 167 N_b :2py   -0.0523   0.0910   0.0000   0.0459  -0.2528  -0.0000   0.0043
 168 N_b :2pz   -0.0000  -0.0000  -0.0081  -0.0000   0.0000  -0.0477  -0.0000
 169 N_b :2px   -0.0078  -0.0159  -0.0000   0.0014  -0.0300   0.0000   0.0401
 170 N_b :2py   -0.0014  -0.0112  -0.0000  -0.0095  -0.0281   0.0000  -0.0321
 172 N_b :2px    0.0395  -0.0032  -0.0000   0.0047  -0.0105   0.0000   0.0079
 173 N_b :2py    0.0035  -0.0056   0.0000  -0.0094  -0.0381  -0.0000  -0.0045
 174 N_b :2pz   -0.0000  -0.0000  -0.0018  -0.0000   0.0000  -0.0225  -0.0000
 175 N_b :3d2-  -0.0113   0.0014   0.0000  -0.0029  -0.0581  -0.0000   0.0094
 179 N_b :3d2+  -0.0104   0.0078   0.0000   0.0007   0.0217  -0.0000   0.0439
 180 N_b :3d2-  -0.0062   0.0081   0.0000   0.0073  -0.0195  -0.0000  -0.0126
 182 N_b :3d0   -0.0023   0.0017  -0.0000   0.0003  -0.0108   0.0000  -0.0016
 184 N_b :3d2+  -0.0193   0.0235   0.0000   0.0122   0.0134  -0.0000  -0.0208
 186 O_a :1s    -0.0317   0.0319   0.0000   0.0187  -0.0080  -0.0000  -0.0022
 187 O_a :1s    -0.0291   0.0272   0.0000   0.0109  -0.0389  -0.0000  -0.0231
 188 O_a :1s    -0.0272   0.0319   0.0000   0.0235  -0.0384  -0.0000  -0.0150
 189 O_a :2px   -0.0444   0.0655   0.0000  -0.0017   0.2538  -0.0000   0.7003
 190 O_a :2py    0.1050  -0.0433  -0.0000  -0.0187   0.4252   0.0000   0.2947
 191 O_a :2pz    0.0000   0.0000  -0.0100  -0.0000   0.0000  -0.0854   0.0000
 192 O_a :2px    0.0132  -0.0128  -0.0000  -0.0066   0.0299   0.0000   0.0494
 193 O_a :2py   -0.0044   0.0022   0.0000  -0.0006  -0.0028  -0.0000   0.0132
 195 O_a :2px   -0.0077  -0.0004   0.0000  -0.0031   0.0339  -0.0000   0.0595
 196 O_a :2py    0.0006   0.0030  -0.0000   0.0063   0.0207   0.0000   0.0249
 203 O_a :3d2-   0.0007  -0.0016   0.0000  -0.0022   0.0023   0.0000   0.0233
 207 O_a :3d2+  -0.0057   0.0035   0.0000   0.0024  -0.0104  -0.0000  -0.0182
 209 O_b :1s     0.0140   0.0055  -0.0000   0.0053  -0.0057   0.0000  -0.0042
 210 O_b :1s     0.0227  -0.0163  -0.0000   0.0010  -0.0432   0.0000   0.0113
 211 O_b :1s     0.0245   0.0253  -0.0000   0.0308  -0.0120   0.0000  -0.0033
 212 O_b :2px   -0.0757   0.0253   0.0000  -0.0056   0.2347  -0.0000   0.1466
 213 O_b :2py    0.0907   0.0449   0.0000   0.0866   0.6602  -0.0000  -0.5666
 214 O_b :2pz    0.0000   0.0000  -0.0112  -0.0000  -0.0000  -0.1160   0.0000
 215 O_b :2px    0.0095  -0.0051  -0.0000   0.0028  -0.0162   0.0000   0.0051
 216 O_b :2py   -0.0050   0.0111  -0.0000   0.0076   0.0392  -0.0000  -0.0339
 218 O_b :2px   -0.0021   0.0101   0.0000   0.0062   0.0109  -0.0000   0.0044
 219 O_b :2py   -0.0005   0.0040   0.0000   0.0074   0.0552  -0.0000  -0.0492
 221 O_b :3d2-   0.0015   0.0019  -0.0000   0.0022   0.0071   0.0000  -0.0103
 226 O_b :3d2-   0.0010   0.0049   0.0000   0.0047   0.0194  -0.0000  -0.0228
 231 H_a :1s     0.2612   0.3064   0.0000  -0.1154   0.0028  -0.0000  -0.0000
 232 H_a :1s    -0.0231   0.0463   0.0000  -0.0160  -0.0104  -0.0000   0.0051
 233 H_a :1s     0.0137  -0.0009  -0.0000   0.0065  -0.0135   0.0000  -0.0115
 237 H_a :2px   -0.0254  -0.0084  -0.0000   0.0023   0.0054   0.0000  -0.0029
 238 H_a :2py    0.0028   0.0326   0.0000  -0.0145  -0.0005  -0.0000   0.0011
 239 H_a :2pz   -0.0000   0.0000  -0.0109  -0.0000   0.0000   0.0030  -0.0000
 240 H_b :1s     0.1126   0.4229  -0.0000  -0.2976   0.0038   0.0000  -0.0065
 241 H_b :1s     0.0335   0.1508   0.0000  -0.0572   0.0159  -0.0000  -0.0108
 242 H_b :1s     0.0200   0.0523   0.0000  -0.0061  -0.0127  -0.0000   0.0196
 246 H_b :2px    0.0402   0.0359  -0.0000  -0.0165  -0.0033   0.0000   0.0006
 247 H_b :2py   -0.0064  -0.0577  -0.0000   0.0312  -0.0048   0.0000   0.0024
 249 H_c :1s     0.1618   0.1239   0.0000  -0.0295  -0.0010  -0.0000   0.0009
 250 H_c :1s     0.0165   0.0095  -0.0000   0.0126   0.0021   0.0000  -0.0021
 254 H_c :2pz    0.0000   0.0000   0.0180  -0.0000   0.0000  -0.0080  -0.0000
 255 H_c :2px    0.0130   0.0040   0.0000  -0.0018  -0.0002  -0.0000   0.0004
 256 H_c :2py   -0.0260  -0.0190   0.0000  -0.0023  -0.0006  -0.0000   0.0007
 258 H_d :1s    -0.2179  -0.0578   0.0000  -0.0046   0.0107  -0.0000  -0.0030
 259 H_d :1s    -0.0158  -0.0499  -0.0000   0.0103  -0.0008   0.0000   0.0027
 263 H_d :2pz    0.0000  -0.0000   0.0180   0.0000  -0.0000  -0.0085   0.0000
 264 H_d :2px    0.0349   0.0267   0.0000  -0.0047  -0.0010  -0.0000  -0.0010
 267 H_e :1s    -0.1217   0.1706  -0.0000  -0.4216   0.0078   0.0000  -0.0271
 268 H_e :1s    -0.0447   0.0445  -0.0000  -0.0989  -0.0138   0.0000  -0.0287
 269 H_e :1s    -0.0217   0.0268   0.0000  -0.0574   0.0550  -0.0000   0.0268
 273 H_e :2px   -0.0272  -0.0103   0.0000   0.0180   0.0151  -0.0000  -0.0018
 274 H_e :2py   -0.0332   0.0215  -0.0000  -0.0532   0.0044   0.0000  -0.0109
 276 H_f :1s    -0.0722  -0.2096   0.0000  -0.4441  -0.0091  -0.0000  -0.0564
 277 H_f :1s    -0.0548  -0.0560  -0.0000  -0.1156   0.0145   0.0000  -0.0068
 278 H_f :1s    -0.0095  -0.0421  -0.0000  -0.0321   0.0047   0.0000  -0.0336
 281 H_f :2pz    0.0000  -0.0000   0.0024  -0.0000   0.0000   0.0106   0.0000
 282 H_f :2px    0.0204  -0.0134  -0.0000  -0.0284  -0.0088  -0.0000  -0.0011
 283 H_f :2py    0.0331   0.0212  -0.0000   0.0521  -0.0068   0.0000   0.0070
 285 H_g :1s     0.1668  -0.3849   0.0000  -0.2788   0.0100  -0.0000  -0.0507
 286 H_g :1s     0.0503  -0.1150  -0.0000  -0.0502   0.0214   0.0000  -0.0724
 287 H_g :1s     0.0194  -0.0352  -0.0000   0.0099  -0.0511   0.0000  -0.0007
 291 H_g :2px   -0.0415   0.0276  -0.0000   0.0110   0.0045   0.0000   0.0015
 292 H_g :2py    0.0134  -0.0507  -0.0000  -0.0330   0.0089   0.0000  -0.0351
 294 H_h :1s     0.2415  -0.2605  -0.0000  -0.1250   0.0860   0.0000   0.1318
 295 H_h :1s    -0.0002  -0.0507   0.0000  -0.0238  -0.0373  -0.0000   0.0580
 296 H_h :1s    -0.0087   0.0124   0.0000   0.0026   0.0050  -0.0000  -0.0035
 300 H_h :2px    0.0215  -0.0169  -0.0000  -0.0078  -0.0274   0.0000   0.0188
 301 H_h :2py   -0.0115   0.0286  -0.0000   0.0144  -0.0086   0.0000  -0.0172

    Orbital        35       36       37       38       39       40       41
   2 C_a :1s    -0.0000   0.0000  -0.0000   0.0363  -0.0545   0.0144  -0.0000
   3 C_a :1s     0.0000   0.0000   0.0000  -0.6882   0.1799   0.4179   0.0000
   4 C_a :1s     0.0000   0.0000  -0.0000   2.0612  14.4692   4.3247   0.0000
   5 C_a :2px    0.0000  -0.0000   0.0000   0.0012  -0.0304   0.0340   0.0000
   6 C_a :2py   -0.0000  -0.0000  -0.0000  -0.0671   0.0458  -0.0178  -0.0000
   7 C_a :2pz   -0.0019   0.1351   0.3010  -0.0000  -0.0000   0.0000  -0.3081
   8 C_a :2px   -0.0000  -0.0000  -0.0000   0.9728  -0.0149  -0.0092  -0.0000
   9 C_a :2py    0.0000   0.0000   0.0000   0.1237   0.2318  -0.0475  -0.0000
  10 C_a :2pz    0.0026   0.0138   0.0169  -0.0000  -0.0000  -0.0000  -0.0620
  11 C_a :2px    0.0000  -0.0000   0.0000   2.4673  -3.1461  -1.7998   0.0000
  12 C_a :2py   -0.0000  -0.0000  -0.0000   0.8007   2.5224  -2.0304   0.0000
  13 C_a :2pz   -0.0011   0.0229   0.0493  -0.0000  -0.0000   0.0000  -0.3615
  15 C_a :3d1-   0.0004  -0.0112  -0.0098  -0.0000  -0.0000   0.0000   0.0054
  17 C_a :3d1+   0.0009  -0.0309  -0.0322  -0.0000  -0.0000   0.0000   0.0036
  19 C_a :3d2-  -0.0000  -0.0000  -0.0000   0.0403  -0.0241  -0.2250  -0.0000
  21 C_a :3d0    0.0000  -0.0000   0.0000   0.0298  -0.0013  -0.0725   0.0000
  22 C_a :3d1+  -0.0009  -0.0186  -0.0207   0.0000   0.0000  -0.0000  -0.0157
  23 C_a :3d2+  -0.0000   0.0000  -0.0000  -0.2652  -0.0851  -0.0759  -0.0000
  25 C_b :1s    -0.0000   0.0000   0.0000   0.0181   0.0645   0.0189   0.0000
  26 C_b :1s     0.0000   0.0000   0.0000   0.3956  -0.1316   0.3356   0.0000
  27 C_b :1s    -0.0000   0.0000  -0.0000  -0.2311 -19.3306  -4.8104  -0.0000
  28 C_b :2px   -0.0000   0.0000  -0.0000  -0.0088  -0.0184  -0.0209  -0.0000
  29 C_b :2py   -0.0000  -0.0000  -0.0000   0.0260   0.0469   0.0366  -0.0000
  30 C_b :2pz   -0.0107   0.3905   0.4010   0.0000   0.0000  -0.0000   0.0261
  31 C_b :2px   -0.0000  -0.0000  -0.0000   1.3131   0.0986  -0.0435  -0.0000
  32 C_b :2py   -0.0000  -0.0000  -0.0000   0.3596  -0.1950  -0.2622  -0.0000
  33 C_b :2pz   -0.0037  -0.0079   0.0241   0.0000   0.0000  -0.0000  -0.0132
  34 C_b :2px   -0.0000   0.0000  -0.0000   1.3173  -5.3630  -0.5104  -0.0000
  35 C_b :2py    0.0000  -0.0000  -0.0000   1.3693   2.8996   2.5519   0.0000
  36 C_b :2pz   -0.0015   0.0223   0.0674   0.0000   0.0000  -0.0000   0.0737
  38 C_b :3d1-   0.0005  -0.0114   0.0027   0.0000   0.0000  -0.0000  -0.0118
  40 C_b :3d1+   0.0003   0.0024   0.0222   0.0000   0.0000  -0.0000  -0.0253
  42 C_b :3d2-  -0.0000  -0.0000   0.0000  -0.3656  -0.0928  -0.2175   0.0000
  44 C_b :3d0    0.0000  -0.0000  -0.0000  -0.0054   0.0694  -0.0025   0.0000
  45 C_b :3d1+  -0.0022  -0.0052   0.0104  -0.0000  -0.0000   0.0000  -0.0318
  46 C_b :3d2+  -0.0000  -0.0000  -0.0000   0.1223  -0.1151  -0.2179  -0.0000
  48 C_c :1s     0.0000  -0.0000  -0.0000  -0.0157  -0.0542   0.0202  -0.0000
  49 C_c :1s     0.0000   0.0000   0.0000   0.5038   0.4114   0.8196   0.0000
  50 C_c :1s     0.0000   0.0000   0.0000   0.3885  18.0665   4.9899  -0.0000
  51 C_c :2px   -0.0000  -0.0000   0.0000  -0.0044  -0.0197   0.0289   0.0000
  52 C_c :2py    0.0000   0.0000   0.0000  -0.0286   0.0352  -0.0412   0.0000
  53 C_c :2pz   -0.0136   0.2872  -0.2362  -0.0000  -0.0000   0.0000   0.3735
  54 C_c :2px   -0.0000  -0.0000  -0.0000   0.7308  -0.0060  -0.4615  -0.0000
  55 C_c :2py   -0.0000   0.0000  -0.0000   0.7232  -0.0829   0.1088  -0.0000
  56 C_c :2pz    0.0005  -0.0139  -0.0187  -0.0000  -0.0000   0.0000   0.0654
  57 C_c :2px   -0.0000  -0.0000   0.0000   2.1273   0.7133  -0.3799   0.0000
  58 C_c :2py    0.0000  -0.0000   0.0000   0.5565   3.9074   0.1167   0.0000
  59 C_c :2pz    0.0022  -0.0013  -0.0420  -0.0000  -0.0000   0.0000   0.2767
  61 C_c :3d1-  -0.0004   0.0129   0.0125   0.0000   0.0000  -0.0000   0.0047
  63 C_c :3d1+   0.0003   0.0063   0.0340  -0.0000  -0.0000   0.0000   0.0071
  65 C_c :3d2-  -0.0000  -0.0000  -0.0000  -0.0076  -0.0869  -0.3394  -0.0000
  66 C_c :3d1-   0.0028  -0.0014   0.0111  -0.0000  -0.0000   0.0000   0.0015
  67 C_c :3d0   -0.0000   0.0000   0.0000  -0.0136  -0.0567  -0.0343   0.0000
  68 C_c :3d1+   0.0024   0.0070   0.0268   0.0000   0.0000  -0.0000   0.0157
  69 C_c :3d2+   0.0000  -0.0000   0.0000  -0.3663  -0.1421  -0.1043   0.0000
  71 C_d :1s    -0.0000   0.0000  -0.0000  -0.0073   0.0355   0.0195   0.0000
  72 C_d :1s    -0.0000  -0.0000  -0.0000   0.6858  -0.0591   0.5000  -0.0000
  73 C_d :1s    -0.0000  -0.0000   0.0000   2.3706 -12.5279  -2.2820   0.0000
  74 C_d :2px    0.0000  -0.0000  -0.0000  -0.0015  -0.0139  -0.0288  -0.0000
  75 C_d :2py    0.0000  -0.0000  -0.0000   0.0043   0.0304   0.0397  -0.0000
  76 C_d :2pz   -0.0132   0.0561  -0.4345   0.0000   0.0000  -0.0000  -0.1359
  77 C_d :2px   -0.0000  -0.0000  -0.0000   0.5293  -0.0471  -0.5254  -0.0000
  78 C_d :2py   -0.0000  -0.0000  -0.0000  -0.0066  -0.2588  -0.6277  -0.0000
  79 C_d :2pz    0.0159   0.0141  -0.0162   0.0000   0.0000  -0.0000  -0.0126
  80 C_d :2px   -0.0000  -0.0000  -0.0000   1.5733  -5.9022  -0.4579   0.0000
  81 C_d :2py    0.0000   0.0000  -0.0000   0.7131  -1.0998   1.5231  -0.0000
  82 C_d :2pz    0.0013   0.0095  -0.0670   0.0000   0.0000  -0.0000  -0.0551
  84 C_d :3d1-   0.0001   0.0096   0.0013   0.0000   0.0000  -0.0000   0.0159
  86 C_d :3d1+  -0.0007   0.0206  -0.0156  -0.0000  -0.0000   0.0000   0.0282
  88 C_d :3d2-   0.0000  -0.0000   0.0000  -0.2343   0.0562  -0.1513   0.0000
  90 C_d :3d0    0.0000  -0.0000  -0.0000  -0.0142   0.0399  -0.0194  -0.0000
  91 C_d :3d1+  -0.0048   0.0039  -0.0035   0.0000   0.0000  -0.0000   0.0285
  92 C_d :3d2+  -0.0000  -0.0000  -0.0000   0.0290   0.0281  -0.3502  -0.0000
  94 C_e :1s     0.0000   0.0000   0.0000  -0.0071  -0.0193   0.0146   0.0000
  95 C_e :1s    -0.0000  -0.0000  -0.0000   0.2856   0.0149   0.1125  -0.0000
  96 C_e :1s     0.0000   0.0000  -0.0000  -0.5529   4.6677  -1.2259   0.0000
  97 C_e :2px   -0.0000   0.0000   0.0000   0.0008  -0.0082   0.0135   0.0000
  98 C_e :2py   -0.0000   0.0000   0.0000  -0.0074   0.0152  -0.0284   0.0000
  99 C_e :2pz   -0.0036  -0.3409   0.0851  -0.0000  -0.0000   0.0000  -0.3795
 100 C_e :2px    0.0000   0.0000  -0.0000  -0.0674  -0.0993  -0.7719  -0.0000
 101 C_e :2py   -0.0000  -0.0000  -0.0000   0.1898  -0.1980  -0.3146  -0.0000
 102 C_e :2pz   -0.0333   0.0045   0.0038  -0.0000  -0.0000   0.0000  -0.0742
 103 C_e :2px   -0.0000  -0.0000   0.0000   0.8291   1.7111   2.5481  -0.0000
 104 C_e :2py   -0.0000  -0.0000   0.0000   0.3178   1.7888  -0.1253   0.0000
 105 C_e :2pz   -0.0075  -0.0061   0.0197  -0.0000  -0.0000   0.0000  -0.3825
 107 C_e :3d1-  -0.0008   0.0009  -0.0147   0.0000   0.0000  -0.0000  -0.0075
 109 C_e :3d1+   0.0006   0.0245  -0.0301  -0.0000   0.0000   0.0000  -0.0158
 111 C_e :3d2-  -0.0000  -0.0000   0.0000   0.0058   0.0148  -0.3251   0.0000
 112 C_e :3d1-  -0.0120   0.0040  -0.0131  -0.0000  -0.0000   0.0000  -0.0053
 113 C_e :3d0    0.0000   0.0000  -0.0000  -0.0192  -0.0149  -0.0202  -0.0000
 114 C_e :3d1+   0.0050   0.0023  -0.0170   0.0000  -0.0000  -0.0000  -0.0191
 115 C_e :3d2+   0.0000  -0.0000   0.0000  -0.0905   0.0631   0.0381   0.0000
 117 C_f :1s     0.0000   0.0000  -0.0000  -0.0051   0.0176   0.0125  -0.0000
 118 C_f :1s    -0.0000   0.0000  -0.0000   0.0931  -0.2067  -0.2197  -0.0000
 119 C_f :1s    -0.0000  -0.0000   0.0000   3.0573  -2.9826   6.8493  -0.0000
 120 C_f :2px    0.0000  -0.0000  -0.0000  -0.0000  -0.0083  -0.0224  -0.0000
 121 C_f :2py   -0.0000  -0.0000  -0.0000   0.0000   0.0132   0.0160  -0.0000
 122 C_f :2pz   -0.0134  -0.4393   0.3668   0.0000   0.0000  -0.0000   0.2658
 123 C_f :2px    0.0000   0.0000   0.0000  -0.1020  -0.0376  -0.5526   0.0000
 124 C_f :2py    0.0000   0.0000   0.0000   0.0126   0.1161  -0.0251   0.0000
 125 C_f :2pz    0.0100  -0.0001   0.0164   0.0000   0.0000  -0.0000   0.0584
 126 C_f :2px   -0.0000  -0.0000  -0.0000   0.8073  -1.9179   0.6158  -0.0000
 127 C_f :2py   -0.0000  -0.0000  -0.0000  -0.1494  -0.8472   0.0155   0.0000
 128 C_f :2pz    0.0039  -0.0349   0.0492   0.0000   0.0000  -0.0000   0.1913
 130 C_f :3d1-  -0.0009   0.0043  -0.0056  -0.0000  -0.0000  -0.0000  -0.0167
 132 C_f :3d1+   0.0023  -0.0177   0.0046  -0.0000  -0.0000   0.0000  -0.0291
 134 C_f :3d2-   0.0000  -0.0000   0.0000  -0.0049   0.0397  -0.1149   0.0000
 135 C_f :3d1-  -0.0052  -0.0107   0.0114   0.0000   0.0000  -0.0000  -0.0113
 136 C_f :3d0   -0.0000   0.0000   0.0000  -0.0152   0.0139  -0.0493   0.0000
 137 C_f :3d1+   0.0290  -0.0138   0.0082   0.0000   0.0000  -0.0000  -0.0178
 138 C_f :3d2+   0.0000   0.0000   0.0000  -0.0014  -0.0022  -0.0974   0.0000
 140 N_a :1s     0.0000  -0.0000   0.0000   0.1255   0.0351  -0.0383   0.0000
 141 N_a :1s    -0.0000  -0.0000   0.0000  -0.1672  -0.0854   0.0303  -0.0000
 142 N_a :1s    -0.0000  -0.0000   0.0000  -2.5748  -2.6553   0.4557  -0.0000
 143 N_a :2px   -0.0000   0.0000  -0.0000   0.0564  -0.0371  -0.0237  -0.0000
 144 N_a :2py   -0.0000   0.0000   0.0000   0.0402   0.0511  -0.0009  -0.0000
 145 N_a :2pz    0.0122  -0.3476  -0.3206   0.0000  -0.0000  -0.0000   0.1572
 146 N_a :2px    0.0000   0.0000   0.0000   0.0978   0.0211  -0.0299   0.0000
 147 N_a :2py   -0.0000  -0.0000  -0.0000   0.0746   0.0296  -0.0358   0.0000
 148 N_a :2pz    0.0007  -0.0341  -0.0416  -0.0000   0.0000   0.0000   0.0464
 149 N_a :2px   -0.0000   0.0000  -0.0000   0.8624   0.2916  -0.3093  -0.0000
 150 N_a :2py   -0.0000   0.0000  -0.0000   1.0559   0.6202  -0.1500  -0.0000
 151 N_a :2pz    0.0021  -0.0571  -0.0876   0.0000  -0.0000  -0.0000   0.2313
 161 N_a :3d2+   0.0000  -0.0000   0.0000  -0.0072  -0.0195  -0.0168  -0.0000
 164 N_b :1s     0.0000   0.0000  -0.0000  -0.0338  -0.0059  -0.0533   0.0000
 165 N_b :1s    -0.0000   0.0000  -0.0000  -0.6511   0.0746  -1.1484   0.0000
 168 N_b :2pz   -0.0077   0.0192   0.0301  -0.0000  -0.0000   0.0000   0.3800
 169 N_b :2px    0.0000   0.0000   0.0000   0.0075   0.0321  -0.0218   0.0000
 170 N_b :2py    0.0000   0.0000   0.0000  -0.0165   0.0357  -0.0319   0.0000
 171 N_b :2pz    0.0021  -0.0136   0.0150   0.0000   0.0000  -0.0000   0.0793
 172 N_b :2px    0.0000   0.0000   0.0000  -0.2323   0.6906  -0.1817   0.0000
 173 N_b :2py    0.0000   0.0000   0.0000  -0.3316   0.1470  -0.8394   0.0000
 174 N_b :2pz   -0.0002   0.0176  -0.0059  -0.0000  -0.0000   0.0000   0.2727
 176 N_b :3d1-  -0.0302  -0.0153   0.0132   0.0000   0.0000  -0.0000   0.0190
 178 N_b :3d1+   0.0480  -0.0088   0.0086   0.0000   0.0000  -0.0000   0.0118
 180 N_b :3d2-  -0.0000   0.0000   0.0000   0.0160   0.0118   0.0272  -0.0000
 181 N_b :3d1-   0.0000  -0.0154   0.0145   0.0000   0.0000  -0.0000   0.0178
 183 N_b :3d1+  -0.0004  -0.0092   0.0100  -0.0000  -0.0000   0.0000   0.0096
 186 O_a :1s    -0.0000  -0.0000  -0.0000   0.0011  -0.0064   0.0159  -0.0000
 187 O_a :1s     0.0000   0.0000   0.0000   0.0120   0.0090   0.0229  -0.0000
 188 O_a :1s     0.0000   0.0000  -0.0000   0.0175  -0.0456  -0.1762  -0.0000
 191 O_a :2pz    0.6484   0.1488  -0.1177   0.0000   0.0000  -0.0000  -0.2629
 194 O_a :2pz    0.0512   0.0101  -0.0118  -0.0000  -0.0000   0.0000  -0.0489
 195 O_a :2px   -0.0000   0.0000   0.0000   0.0818  -0.0429   0.1627  -0.0000
 196 O_a :2py   -0.0000  -0.0000  -0.0000   0.0462  -0.0038   0.0541   0.0000
 197 O_a :2pz    0.0673   0.0091  -0.0179   0.0000   0.0000  -0.0000  -0.1907
 199 O_a :3d1-   0.0122   0.0025  -0.0010  -0.0000  -0.0000   0.0000   0.0047
 204 O_a :3d1-   0.0268   0.0054  -0.0040   0.0000   0.0000  -0.0000  -0.0039
 206 O_a :3d1+  -0.0108  -0.0003   0.0001  -0.0000  -0.0000   0.0000   0.0002
 209 O_b :1s     0.0000  -0.0000  -0.0000  -0.0012   0.0003   0.0109   0.0000
 210 O_b :1s    -0.0000   0.0000   0.0000   0.0164   0.0058   0.0116   0.0000
 211 O_b :1s     0.0000   0.0000   0.0000   0.0654   0.3068   0.1461   0.0000
 214 O_b :2pz   -0.6415   0.1288  -0.1242   0.0000   0.0000  -0.0000  -0.3050
 215 O_b :2px   -0.0000   0.0000   0.0000   0.0119   0.0109   0.0081   0.0000
 216 O_b :2py    0.0000   0.0000   0.0000   0.0046   0.0028   0.0134   0.0000
 217 O_b :2pz   -0.0503   0.0082  -0.0112  -0.0000  -0.0000   0.0000  -0.0556
 218 O_b :2px    0.0000   0.0000  -0.0000   0.0268   0.0660   0.0156  -0.0000
 219 O_b :2py   -0.0000  -0.0000  -0.0000   0.0828  -0.0908   0.1429  -0.0000
 220 O_b :2pz   -0.0658   0.0097  -0.0202   0.0000   0.0000  -0.0000  -0.2182
 224 O_b :3d1+  -0.0139   0.0030  -0.0017  -0.0000  -0.0000   0.0000   0.0045
 226 O_b :3d2-  -0.0000  -0.0000  -0.0000   0.0046  -0.0021   0.0104  -0.0000
 229 O_b :3d1+  -0.0296   0.0049  -0.0039   0.0000   0.0000  -0.0000  -0.0047
 231 H_a :1s    -0.0000  -0.0000   0.0000   0.0291   0.0073   0.0127   0.0000
 232 H_a :1s    -0.0000   0.0000  -0.0000  -0.4196   0.0661  -0.9310  -0.0000
 233 H_a :1s    -0.0000  -0.0000  -0.0000  -1.6025   3.7982  -1.9189   0.0000
 237 H_a :2px    0.0000  -0.0000   0.0000   0.0528   0.0337   0.0608   0.0000
 238 H_a :2py   -0.0000   0.0000  -0.0000  -0.0605   0.0155  -0.1611  -0.0000
 239 H_a :2pz   -0.0000   0.0051   0.0065   0.0000   0.0000  -0.0000  -0.0218
 240 H_b :1s    -0.0000  -0.0000  -0.0000   0.0346   0.0041   0.0313   0.0000
 241 H_b :1s     0.0000   0.0000  -0.0000  -0.2214   0.3550  -0.5076  -0.0000
 242 H_b :1s    -0.0000   0.0000  -0.0000  -0.7102  -3.6197  -2.6102  -0.0000
 246 H_b :2px   -0.0000  -0.0000  -0.0000   0.0208   0.0808  -0.0280  -0.0000
 247 H_b :2py   -0.0000   0.0000  -0.0000   0.0235  -0.1284   0.0705  -0.0000
 249 H_c :1s     0.0000   0.0000   0.0000   0.0042   0.0023   0.0150  -0.0000
 250 H_c :1s     0.0000  -0.0000  -0.0000  -0.0018  -0.0012  -0.1020   0.0000
 251 H_c :1s     0.0000  -0.0000   0.0000  -1.2534  -1.7313   0.6456   0.0000
 254 H_c :2pz    0.0004  -0.0103  -0.0103  -0.0000  -0.0000   0.0000   0.0074
 255 H_c :2px    0.0000   0.0000   0.0000  -0.0526   0.0016   0.0406   0.0000
 256 H_c :2py   -0.0000   0.0000  -0.0000  -0.0715  -0.0214   0.0552   0.0000
 259 H_d :1s     0.0000  -0.0000   0.0000   0.0342   0.2842   0.1443   0.0000
 260 H_d :1s     0.0000   0.0000  -0.0000  -1.8729   0.7622   1.8598   0.0000
 263 H_d :2pz    0.0004  -0.0112  -0.0109   0.0000   0.0000  -0.0000   0.0065
 264 H_d :2px   -0.0000   0.0000  -0.0000  -0.0715  -0.0336  -0.0167  -0.0000
 265 H_d :2py   -0.0000   0.0000  -0.0000  -0.0610  -0.0406   0.0155  -0.0000
 266 H_d :2pz    0.0002  -0.0088  -0.0112  -0.0000  -0.0000   0.0000   0.0088
 267 H_e :1s    -0.0000  -0.0000  -0.0000   0.0127  -0.0063   0.0352  -0.0000
 268 H_e :1s     0.0000  -0.0000   0.0000  -0.2705  -0.8039  -0.7321  -0.0000
 269 H_e :1s     0.0000   0.0000   0.0000   0.5002   1.4845  -0.4228  -0.0000
 273 H_e :2px   -0.0000   0.0000   0.0000   0.0799   0.1308   0.0590  -0.0000
 274 H_e :2py    0.0000  -0.0000   0.0000   0.0010  -0.1599  -0.1187  -0.0000
 275 H_e :2pz    0.0007   0.0006  -0.0024  -0.0000   0.0000   0.0000   0.0141
 276 H_f :1s     0.0000   0.0000  -0.0000   0.0072   0.0094   0.0364  -0.0000
 277 H_f :1s    -0.0000   0.0000  -0.0000  -0.3304   0.5983  -0.5164   0.0000
 278 H_f :1s    -0.0000  -0.0000  -0.0000   0.2619  -1.5171  -1.3912   0.0000
 281 H_f :2pz   -0.0004   0.0014  -0.0105   0.0000   0.0000  -0.0000  -0.0036
 282 H_f :2px    0.0000   0.0000  -0.0000  -0.0218   0.0818  -0.0901  -0.0000
 283 H_f :2py    0.0000  -0.0000  -0.0000   0.0716  -0.1319   0.0374  -0.0000
 285 H_g :1s     0.0000  -0.0000   0.0000   0.0044   0.0015   0.0235  -0.0000
 286 H_g :1s    -0.0000  -0.0000   0.0000   0.0136  -0.1299  -0.5302   0.0000
 287 H_g :1s    -0.0000  -0.0000  -0.0000  -0.2738   1.0523  -1.2146   0.0000
 290 H_g :2pz    0.0005  -0.0075   0.0017  -0.0000  -0.0000   0.0000  -0.0119
 291 H_g :2px    0.0000   0.0000  -0.0000   0.0367   0.0334   0.0313   0.0000
 292 H_g :2py   -0.0000  -0.0000   0.0000   0.0328  -0.0372  -0.0674   0.0000
 294 H_h :1s    -0.0000  -0.0000  -0.0000   0.0009   0.0034   0.0128   0.0000
 295 H_h :1s     0.0000   0.0000  -0.0000  -0.2197   0.0376  -0.8483  -0.0000
 296 H_h :1s     0.0000   0.0000   0.0000   0.4070  -0.8670  -0.4201  -0.0000
 299 H_h :2pz   -0.0001  -0.0108   0.0090   0.0000   0.0000  -0.0000   0.0073
 300 H_h :2px    0.0000   0.0000  -0.0000  -0.0344  -0.0238  -0.1050  -0.0000
 301 H_h :2py    0.0000   0.0000   0.0000   0.0553  -0.0303   0.1340   0.0000
 302 H_h :2pz    0.0095   0.0008   0.0002  -0.0000   0.0000   0.0000   0.0169

    Orbital        42       43       44       45       46       47
   2 C_a :1s     0.0048  -0.0366   0.0278   0.0022  -0.0000  -0.0058
   3 C_a :1s     0.0597  -0.0275   0.4753  -0.0755   0.0000  -0.9843
   4 C_a :1s     0.7407   1.9130  -4.8909 -12.0165  -0.0000   1.9816
   5 C_a :2px   -0.0016  -0.0292   0.0070   0.0008  -0.0000   0.0227
   6 C_a :2py   -0.0027   0.0160  -0.0335  -0.0155  -0.0000  -0.0120
   7 C_a :2pz    0.0000   0.0000   0.0000   0.0000   0.0285   0.0000
   8 C_a :2px   -0.1999  -0.2645  -0.1781  -0.1478  -0.0000   1.1155
   9 C_a :2py    0.1449   0.1081  -0.1813   0.2435   0.0000  -0.5616
  10 C_a :2pz   -0.0000  -0.0000  -0.0000  -0.0000  -0.0300  -0.0000
  11 C_a :2px    0.9576   1.0184   1.6815   2.0702  -0.0000   2.4418
  12 C_a :2py    1.1077   3.3995  -2.7497  -0.0928  -0.0000   0.9180
  13 C_a :2pz    0.0000   0.0000   0.0000   0.0000   2.5027   0.0000
  15 C_a :3d1-  -0.0000  -0.0000  -0.0000   0.0000  -0.0133   0.0000
  19 C_a :3d2-   0.0594   0.1442   0.0924   0.1729   0.0000   0.3366
  20 C_a :3d1-   0.0000   0.0000   0.0000  -0.0000  -0.0574  -0.0000
  21 C_a :3d0    0.0180   0.0054  -0.0179   0.0150  -0.0000   0.0847
  22 C_a :3d1+  -0.0000   0.0000   0.0000  -0.0000  -0.0117  -0.0000
  23 C_a :3d2+  -0.0451   0.2147   0.0585   0.1375   0.0000  -0.2676
  25 C_b :1s     0.0123  -0.0315  -0.0310  -0.0483   0.0000  -0.0506
  26 C_b :1s     0.0178  -0.1860   0.2500   0.5159   0.0000  -0.2493
  27 C_b :1s    -5.9736  11.0230   5.7947  16.0328  -0.0000 -15.4211
  28 C_b :2px   -0.0045   0.0260   0.0009   0.0173  -0.0000  -0.0149
  29 C_b :2py    0.0093  -0.0289  -0.0255  -0.0211  -0.0000   0.0027
  30 C_b :2pz   -0.0000   0.0000   0.0000  -0.0000  -0.1795  -0.0000
  31 C_b :2px   -0.0956  -0.3282  -0.5743  -0.4259  -0.0000   1.3966
  32 C_b :2py   -0.1465   0.0345  -0.1673  -0.6600  -0.0000   0.2703
  33 C_b :2pz   -0.0000  -0.0000   0.0000  -0.0000  -0.0791  -0.0000
  34 C_b :2px   -2.7915  -3.9959   6.4566   6.0713   0.0000   6.2841
  35 C_b :2py    0.8889  -5.8118   0.4951  -4.6643   0.0000   0.8487
  36 C_b :2pz   -0.0000   0.0000   0.0000  -0.0000  -2.1596  -0.0000
  42 C_b :3d2-   0.0306   0.1974   0.3147   0.2867   0.0000   0.3145
  44 C_b :3d0    0.0418  -0.0571  -0.0011  -0.0814   0.0000   0.0549
  46 C_b :3d2+  -0.1248  -0.0513  -0.0637  -0.1248  -0.0000   0.7468
  48 C_c :1s     0.0443   0.0262  -0.0099   0.0487  -0.0000  -0.0686
  49 C_c :1s    -0.2731  -0.1742  -0.2178  -0.0850   0.0000  -0.0612
  50 C_c :1s    -6.2797  -9.8877  -0.0200  -1.0266   0.0000   9.3115
  51 C_c :2px    0.0118   0.0165  -0.0040   0.0297  -0.0000  -0.0005
  52 C_c :2py   -0.0345  -0.0169   0.0030  -0.0233  -0.0000   0.0167
  53 C_c :2pz    0.0000  -0.0000  -0.0000   0.0000   0.0522   0.0000
  54 C_c :2px    0.0889  -0.0646  -0.4758  -0.4020  -0.0000   0.5012
  55 C_c :2py   -0.0384  -0.1173  -0.6709  -0.8688  -0.0000   0.4290
  56 C_c :2pz    0.0000   0.0000  -0.0000   0.0000   0.0200   0.0000
  57 C_c :2px    9.5921  -3.0674  -5.1371  -6.9031   0.0000   1.9476
  58 C_c :2py    4.0076  -5.5999  -2.4389  -8.4250   0.0000   9.3100
  59 C_c :2pz    0.0000  -0.0000  -0.0000   0.0000   1.1902   0.0000
  61 C_c :3d1-  -0.0000   0.0000   0.0000  -0.0000  -0.0122  -0.0000
  65 C_c :3d2-  -0.0797  -0.0968   0.0011  -0.4286  -0.0000   0.5165
  66 C_c :3d1-   0.0000  -0.0000  -0.0000   0.0000  -0.0190   0.0000
  67 C_c :3d0    0.0545  -0.0027  -0.0146   0.0231   0.0000  -0.0394
  68 C_c :3d1+  -0.0000  -0.0000   0.0000  -0.0000  -0.0234  -0.0000
  69 C_c :3d2+  -0.1024   0.0088   0.2844  -0.0559   0.0000   0.2586
  71 C_d :1s    -0.0497  -0.0229  -0.0314   0.0627   0.0000   0.0202
  72 C_d :1s     0.3138   0.8273  -0.5042  -0.5289  -0.0000  -0.2753
  73 C_d :1s    14.4591  12.6441  -0.5961 -19.2646  -0.0000  -3.2385
  74 C_d :2px    0.0146   0.0058   0.0115  -0.0220  -0.0000  -0.0293
  75 C_d :2py   -0.0384  -0.0029  -0.0203   0.0279  -0.0000   0.0381
  76 C_d :2pz   -0.0000  -0.0000   0.0000  -0.0000  -0.0442  -0.0000
  77 C_d :2px    0.2151  -0.2046  -0.5821  -0.0772  -0.0000   0.4636
  78 C_d :2py   -0.0133  -0.4102  -0.1583   0.4731  -0.0000   0.9965
  79 C_d :2pz    0.0000  -0.0000   0.0000  -0.0000  -0.0658  -0.0000
  80 C_d :2px   -0.8482  -2.3163   5.8886   4.4469  -0.0000  -1.2813
  81 C_d :2py   -4.2448  -3.5217   1.3084  11.9626   0.0000   2.8301
  82 C_d :2pz   -0.0000  -0.0000   0.0000  -0.0000  -0.3089  -0.0000
  88 C_d :3d2-  -0.0497  -0.0873   0.3632  -0.2315   0.0000  -0.1462
  89 C_d :3d1-   0.0000   0.0000  -0.0000   0.0000   0.0186   0.0000
  90 C_d :3d0   -0.0435  -0.0643  -0.0463   0.0925  -0.0000   0.0280
  92 C_d :3d2+   0.0037  -0.1559   0.0476   0.0529  -0.0000  -0.0504
  94 C_e :1s     0.0420   0.0504  -0.0401  -0.0332  -0.0000   0.0038
  95 C_e :1s    -0.2123   0.4466  -0.1142   0.0861  -0.0000   0.0761
  96 C_e :1s   -20.1728  -6.5734  14.1866  15.4641   0.0000 -12.8918
  97 C_e :2px    0.0103   0.0274  -0.0042  -0.0070   0.0000  -0.0059
  98 C_e :2py   -0.0248  -0.0339   0.0303   0.0017   0.0000  -0.0064
  99 C_e :2pz   -0.0000   0.0000  -0.0000  -0.0000  -0.0446   0.0000
 100 C_e :2px   -0.0740  -0.6420  -0.5176   0.2462  -0.0000   0.8727
 101 C_e :2py    0.2575  -0.1689  -0.4629   0.3437  -0.0000   0.5772
 102 C_e :2pz    0.0000   0.0000  -0.0000   0.0000   0.0105   0.0000
 103 C_e :2px    9.1710  -6.2830 -11.6513   0.4755   0.0000  12.0606
 104 C_e :2py   -0.2959  -7.1432  -1.6541   8.2132   0.0000   0.4905
 105 C_e :2pz   -0.0000   0.0000  -0.0000  -0.0000   0.2751   0.0000
 111 C_e :3d2-  -0.0114  -0.4568   0.1270   0.4183   0.0000   0.0741
 113 C_e :3d0    0.0613   0.0496  -0.0582  -0.0801  -0.0000   0.0238
 115 C_e :3d2+  -0.0124   0.0590   0.3179   0.0996   0.0000  -0.4671
 116 C_f :1s    -0.0048   0.0047   0.0079  -0.0014   0.0000  -0.0181
 117 C_f :1s    -0.0563   0.0519   0.0517  -0.0168  -0.0000  -0.0330
 118 C_f :1s     0.2120  -0.2351  -0.6758  -0.2350  -0.0000   1.3618
 119 C_f :1s    18.1867  -5.7441 -16.7602  -1.8234   0.0000  25.1885
 120 C_f :2px    0.0272  -0.0264  -0.0136  -0.0050  -0.0000  -0.0142
 121 C_f :2py   -0.0398   0.0146   0.0273   0.0170  -0.0000   0.0089
 123 C_f :2px   -0.0035  -0.4505  -0.5035   0.0707  -0.0000   0.4764
 124 C_f :2py   -0.0673  -0.2785   0.2796   0.1801   0.0000   0.0211
 125 C_f :2pz    0.0000   0.0000  -0.0000  -0.0000  -0.0194   0.0000
 126 C_f :2px    4.8687  -1.1374  -4.2553   1.7034  -0.0000   7.6136
 127 C_f :2py   -2.6050   2.9868   3.9547  -1.7384  -0.0000  -2.5338
 128 C_f :2pz   -0.0000  -0.0000   0.0000  -0.0000  -0.2901  -0.0000
 134 C_f :3d2-  -0.0585  -0.2454   0.0491   0.3148   0.0000  -0.0457
 136 C_f :3d0   -0.0196   0.0147   0.0437  -0.0191   0.0000  -0.1081
 137 C_f :3d1+  -0.0000  -0.0000   0.0000  -0.0000  -0.0170  -0.0000
 138 C_f :3d2+  -0.0632  -0.2235  -0.0242   0.0821  -0.0000   0.0996
 140 N_a :1s     0.0013   0.0137   0.0128  -0.0304   0.0000  -0.0140
[...]

@ Value of linear response -<<A;B>>(omega):      61.194266501867

@ Singlet linear response function in a.u.

@ A operator, symmetry, frequency:   XDIPLEN    1 -0.019338
@ B operator, symmetry, frequency:   ZDIPLEN    1  0.019338

@ Value of linear response -<<A;B>>(omega):       0.000000000000

@ Singlet linear response function in a.u.

@ A operator, symmetry, frequency:   YDIPLEN    1 -0.019338
@ B operator, symmetry, frequency:   ZDIPLEN    1  0.019338

@ Value of linear response -<<A;B>>(omega):       0.000000000000

@ Singlet linear response function in a.u.

@ A operator, symmetry, frequency:   ZDIPLEN    1 -0.019338
@ B operator, symmetry, frequency:   ZDIPLEN    1  0.019338

@ Value of linear response -<<A;B>>(omega):      61.270296285485

@ Singlet linear response function in a.u.

@ A operator, symmetry, frequency:   XDIPLEN    1 -0.038675
@ B operator, symmetry, frequency:   ZDIPLEN    1  0.038675

@ Value of linear response -<<A;B>>(omega):       0.000000000000

@ Singlet linear response function in a.u.

@ A operator, symmetry, frequency:   YDIPLEN    1 -0.038675
@ B operator, symmetry, frequency:   ZDIPLEN    1  0.038675

@ Value of linear response -<<A;B>>(omega):      -0.000000000000

@ Singlet linear response function in a.u.

@ A operator, symmetry, frequency:   ZDIPLEN    1 -0.038675
@ B operator, symmetry, frequency:   ZDIPLEN    1  0.038675

@ Value of linear response -<<A;B>>(omega):      61.500650467693


  Results from quadratic response calculation
 --------------------------------------------

@ B-freq = 0.000000  C-freq = 0.000000     beta(X;X,X) =   1408.66096087
@ B-freq = 0.000000  C-freq = 0.000000     beta(Y;X,X) =   1682.49577220
@ B-freq = 0.000000  C-freq = 0.000000     beta(Z;X,X) =      0.00000000
@ B-freq = 0.019338  C-freq = 0.000000     beta(X;X,X) =   1469.57881841
@ B-freq = 0.019338  C-freq = 0.000000     beta(Y;X,X) =   1730.50513988
@ B-freq = 0.019338  C-freq = 0.000000     beta(Z;X,X) =      0.00000000
@ B-freq = 0.038675  C-freq = 0.000000     beta(X;X,X) =   1673.25543574
@ B-freq = 0.038675  C-freq = 0.000000     beta(Y;X,X) =   1888.50123699
@ B-freq = 0.038675  C-freq = 0.000000     beta(Z;X,X) =      0.00000000
@ B-freq = 0.000000  C-freq = 0.000000     beta(X;Y,X) = beta(Y,X,X)
@ B-freq = 0.000000  C-freq = 0.000000     beta(X;Y,X) =   1682.49561820
@ B-freq = 0.000000  C-freq = 0.000000     beta(Y;Y,X) =   1338.09957513
@ B-freq = 0.000000  C-freq = 0.000000     beta(Z;Y,X) =      0.00000000
@ B-freq = 0.019338  C-freq = 0.000000     beta(X;Y,X) =   1730.50498141
@ B-freq = 0.019338  C-freq = 0.000000     beta(Y;Y,X) =   1370.32075889
@ B-freq = 0.019338  C-freq = 0.000000     beta(Z;Y,X) =      0.00000000
@ B-freq = 0.038675  C-freq = 0.000000     beta(X;Y,X) =   1888.50106411
@ B-freq = 0.038675  C-freq = 0.000000     beta(Y;Y,X) =   1475.53974987
@ B-freq = 0.038675  C-freq = 0.000000     beta(Z;Y,X) =      0.00000000
@ B-freq = 0.000000  C-freq = 0.000000     beta(X;Z,X) = beta(Z,X,X)
@ B-freq = 0.000000  C-freq = 0.000000     beta(Y;Z,X) = beta(Z,Y,X)
@ B-freq = 0.000000  C-freq = 0.000000     beta(X;Z,X) =      0.00000000
@ B-freq = 0.000000  C-freq = 0.000000     beta(Y;Z,X) =      0.00000000
@ B-freq = 0.000000  C-freq = 0.000000     beta(Z;Z,X) =    -31.76131169
@ B-freq = 0.019338  C-freq = 0.000000     beta(X;Z,X) =      0.00000000
@ B-freq = 0.019338  C-freq = 0.000000     beta(Y;Z,X) =      0.00000000
@ B-freq = 0.019338  C-freq = 0.000000     beta(Z;Z,X) =    -32.13325279
@ B-freq = 0.038675  C-freq = 0.000000     beta(X;Z,X) =      0.00000000
@ B-freq = 0.038675  C-freq = 0.000000     beta(Y;Z,X) =      0.00000000
@ B-freq = 0.038675  C-freq = 0.000000     beta(Z;Z,X) =    -33.30318785
@ B-freq = 0.000000  C-freq = 0.019338     beta(X;X,X) = beta(X,X,X)
@ B-freq = 0.000000  C-freq = 0.019338     beta(Y;X,X) = beta(Y,X,X)
@ B-freq = 0.000000  C-freq = 0.019338     beta(Z;X,X) = beta(Z,X,X)
@ B-freq = 0.019338  C-freq = 0.019338     beta(X;X,X) =   1601.66205170
@ B-freq = 0.019338  C-freq = 0.019338     beta(Y;X,X) =   1818.85086197
@ B-freq = 0.019338  C-freq = 0.019338     beta(Z;X,X) =      0.00000000
@ B-freq = 0.038675  C-freq = 0.019338     beta(X;X,X) =   1914.28301589
@ B-freq = 0.038675  C-freq = 0.019338     beta(Y;X,X) =   2037.16432237
@ B-freq = 0.038675  C-freq = 0.019338     beta(Z;X,X) =      0.00000000
@ B-freq = 0.000000  C-freq = 0.019338     beta(X;Y,X) =   1743.94575014
@ B-freq = 0.000000  C-freq = 0.019338     beta(Y;Y,X) =   1377.34136680
@ B-freq = 0.000000  C-freq = 0.019338     beta(Z;Y,X) =      0.00000000
@ B-freq = 0.019338  C-freq = 0.019338     beta(X;Y,X) =   1862.29427476
@ B-freq = 0.019338  C-freq = 0.019338     beta(Y;Y,X) =   1446.45329502
@ B-freq = 0.019338  C-freq = 0.019338     beta(Z;Y,X) =      0.00000000
@ B-freq = 0.038675  C-freq = 0.019338     beta(X;Y,X) =   2121.82524537
@ B-freq = 0.038675  C-freq = 0.019338     beta(Y;Y,X) =   1604.37430447
@ B-freq = 0.038675  C-freq = 0.019338     beta(Z;Y,X) =      0.00000000
@ B-freq = 0.000000  C-freq = 0.019338     beta(X;Z,X) =      0.00000000
@ B-freq = 0.000000  C-freq = 0.019338     beta(Y;Z,X) =      0.00000000
@ B-freq = 0.000000  C-freq = 0.019338     beta(Z;Z,X) =    -32.30418738
@ B-freq = 0.019338  C-freq = 0.019338     beta(X;Z,X) =      0.00000000
@ B-freq = 0.019338  C-freq = 0.019338     beta(Y;Z,X) =      0.00000000
@ B-freq = 0.019338  C-freq = 0.019338     beta(Z;Z,X) =    -33.07630566
@ B-freq = 0.038675  C-freq = 0.019338     beta(X;Z,X) =      0.00000000
@ B-freq = 0.038675  C-freq = 0.019338     beta(Y;Z,X) =      0.00000000
@ B-freq = 0.038675  C-freq = 0.019338     beta(Z;Z,X) =    -34.73665788
@ B-freq = 0.000000  C-freq = 0.038675     beta(X;X,X) = beta(X,X,X)
@ B-freq = 0.000000  C-freq = 0.038675     beta(Y;X,X) = beta(Y,X,X)
@ B-freq = 0.000000  C-freq = 0.038675     beta(Z;X,X) = beta(Z,X,X)
@ B-freq = 0.019338  C-freq = 0.038675     beta(X;X,X) = beta(X,X,X)
@ B-freq = 0.019338  C-freq = 0.038675     beta(Y;X,X) = beta(Y,X,X)
@ B-freq = 0.019338  C-freq = 0.038675     beta(Z;X,X) = beta(Z,X,X)
@ B-freq = 0.038675  C-freq = 0.038675     beta(X;X,X) =   2426.75420004
@ B-freq = 0.038675  C-freq = 0.038675     beta(Y;X,X) =   2363.54100469
@ B-freq = 0.038675  C-freq = 0.038675     beta(Z;X,X) =      0.00000000
@ B-freq = 0.000000  C-freq = 0.038675     beta(X;Y,X) =   1948.31494869
@ B-freq = 0.000000  C-freq = 0.038675     beta(Y;Y,X) =   1506.69002320
@ B-freq = 0.000000  C-freq = 0.038675     beta(Z;Y,X) =      0.00000000
@ B-freq = 0.019338  C-freq = 0.038675     beta(X;Y,X) =   2171.80125305
@ B-freq = 0.019338  C-freq = 0.038675     beta(Y;Y,X) =   1630.27145832
@ B-freq = 0.019338  C-freq = 0.038675     beta(Z;Y,X) =      0.00000000
@ B-freq = 0.038675  C-freq = 0.038675     beta(X;Y,X) =   2613.09352821
@ B-freq = 0.038675  C-freq = 0.038675     beta(Y;Y,X) =   1881.29978791
@ B-freq = 0.038675  C-freq = 0.038675     beta(Z;Y,X) =      0.00000000
@ B-freq = 0.000000  C-freq = 0.038675     beta(X;Z,X) =      0.00000000
@ B-freq = 0.000000  C-freq = 0.038675     beta(Y;Z,X) =      0.00000000
@ B-freq = 0.000000  C-freq = 0.038675     beta(Z;Z,X) =    -34.04801379
@ B-freq = 0.019338  C-freq = 0.038675     beta(X;Z,X) =      0.00000000
@ B-freq = 0.019338  C-freq = 0.038675     beta(Y;Z,X) =      0.00000000
@ B-freq = 0.019338  C-freq = 0.038675     beta(Z;Z,X) =    -35.31665609
@ B-freq = 0.038675  C-freq = 0.038675     beta(X;Z,X) =      0.00000000
@ B-freq = 0.038675  C-freq = 0.038675     beta(Y;Z,X) =      0.00000000
@ B-freq = 0.038675  C-freq = 0.038675     beta(Z;Z,X) =    -37.65583956
@ B-freq = 0.000000  C-freq = 0.000000     beta(X;X,Y) = beta(Y,X,X)
@ B-freq = 0.000000  C-freq = 0.000000     beta(Y;X,Y) = beta(Y,Y,X)
@ B-freq = 0.000000  C-freq = 0.000000     beta(Z;X,Y) = beta(Z,Y,X)
@ B-freq = 0.019338  C-freq = 0.000000     beta(X;X,Y) = beta(X,Y,X)
@ B-freq = 0.019338  C-freq = 0.000000     beta(Y;X,Y) = beta(Y,Y,X)
@ B-freq = 0.019338  C-freq = 0.000000     beta(Z;X,Y) = beta(Z,Y,X)
@ B-freq = 0.038675  C-freq = 0.000000     beta(X;X,Y) = beta(X,Y,X)
@ B-freq = 0.038675  C-freq = 0.000000     beta(Y;X,Y) = beta(Y,Y,X)
@ B-freq = 0.038675  C-freq = 0.000000     beta(Z;X,Y) = beta(Z,Y,X)
@ B-freq = 0.000000  C-freq = 0.000000     beta(X;Y,Y) = beta(Y,Y,X)
@ B-freq = 0.000000  C-freq = 0.000000     beta(X;Y,Y) =   1338.09965295
@ B-freq = 0.000000  C-freq = 0.000000     beta(Y;Y,Y) =    851.81979429
@ B-freq = 0.000000  C-freq = 0.000000     beta(Z;Y,Y) =      0.00000000
@ B-freq = 0.019338  C-freq = 0.000000     beta(X;Y,Y) =   1377.34144763
@ B-freq = 0.019338  C-freq = 0.000000     beta(Y;Y,Y) =    875.06924728
@ B-freq = 0.019338  C-freq = 0.000000     beta(Z;Y,Y) =      0.00000000
@ B-freq = 0.038675  C-freq = 0.000000     beta(X;Y,Y) =   1506.69011386
@ B-freq = 0.038675  C-freq = 0.000000     beta(Y;Y,Y) =    951.32430468
@ B-freq = 0.038675  C-freq = 0.000000     beta(Z;Y,Y) =      0.00000000
@ B-freq = 0.000000  C-freq = 0.000000     beta(X;Z,Y) = beta(Z,Y,X)
@ B-freq = 0.000000  C-freq = 0.000000     beta(Y;Z,Y) = beta(Z,Y,Y)
@ B-freq = 0.000000  C-freq = 0.000000     beta(X;Z,Y) =      0.00000000
@ B-freq = 0.000000  C-freq = 0.000000     beta(Y;Z,Y) =      0.00000000
@ B-freq = 0.000000  C-freq = 0.000000     beta(Z;Z,Y) =    -26.28705956
@ B-freq = 0.019338  C-freq = 0.000000     beta(X;Z,Y) =      0.00000000
@ B-freq = 0.019338  C-freq = 0.000000     beta(Y;Z,Y) =      0.00000000
@ B-freq = 0.019338  C-freq = 0.000000     beta(Z;Z,Y) =    -26.51945499
@ B-freq = 0.038675  C-freq = 0.000000     beta(X;Z,Y) =      0.00000000
@ B-freq = 0.038675  C-freq = 0.000000     beta(Y;Z,Y) =      0.00000000
@ B-freq = 0.038675  C-freq = 0.000000     beta(Z;Z,Y) =    -27.24585719
@ B-freq = 0.000000  C-freq = 0.019338     beta(X;X,Y) = beta(X,Y,X)
@ B-freq = 0.000000  C-freq = 0.019338     beta(Y;X,Y) = beta(Y,Y,X)
@ B-freq = 0.000000  C-freq = 0.019338     beta(Z;X,Y) = beta(Z,Y,X)
@ B-freq = 0.019338  C-freq = 0.019338     beta(X;X,Y) = beta(X,Y,X)
@ B-freq = 0.019338  C-freq = 0.019338     beta(Y;X,Y) = beta(Y,Y,X)
@ B-freq = 0.019338  C-freq = 0.019338     beta(Z;X,Y) = beta(Z,Y,X)
@ B-freq = 0.038675  C-freq = 0.019338     beta(X;X,Y) = beta(X,Y,X)
@ B-freq = 0.038675  C-freq = 0.019338     beta(Y;X,Y) = beta(Y,Y,X)
@ B-freq = 0.038675  C-freq = 0.019338     beta(Z;X,Y) = beta(Z,Y,X)
@ B-freq = 0.000000  C-freq = 0.019338     beta(X;Y,Y) = beta(X,Y,Y)
@ B-freq = 0.000000  C-freq = 0.019338     beta(Y;Y,Y) = beta(Y,Y,Y)
@ B-freq = 0.000000  C-freq = 0.019338     beta(Z;Y,Y) = beta(Z,Y,Y)
@ B-freq = 0.019338  C-freq = 0.019338     beta(X;Y,Y) =   1469.14090361
@ B-freq = 0.019338  C-freq = 0.019338     beta(Y;Y,Y) =    924.76933539
@ B-freq = 0.019338  C-freq = 0.019338     beta(Z;Y,Y) =      0.00000000
@ B-freq = 0.038675  C-freq = 0.019338     beta(X;Y,Y) =   1674.46638455
@ B-freq = 0.038675  C-freq = 0.019338     beta(Y;Y,Y) =   1039.07544570
@ B-freq = 0.038675  C-freq = 0.019338     beta(Z;Y,Y) =      0.00000000
@ B-freq = 0.000000  C-freq = 0.019338     beta(X;Z,Y) =      0.00000000
@ B-freq = 0.000000  C-freq = 0.019338     beta(Y;Z,Y) =      0.00000000
@ B-freq = 0.000000  C-freq = 0.019338     beta(Z;Z,Y) =    -26.61048608
@ B-freq = 0.019338  C-freq = 0.019338     beta(X;Z,Y) =      0.00000000
@ B-freq = 0.019338  C-freq = 0.019338     beta(Y;Z,Y) =      0.00000000
@ B-freq = 0.019338  C-freq = 0.019338     beta(Z;Z,Y) =    -27.09029777
@ B-freq = 0.038675  C-freq = 0.019338     beta(X;Z,Y) =      0.00000000
@ B-freq = 0.038675  C-freq = 0.019338     beta(Y;Z,Y) =      0.00000000
@ B-freq = 0.038675  C-freq = 0.019338     beta(Z;Z,Y) =    -28.11238173
@ B-freq = 0.000000  C-freq = 0.038675     beta(X;X,Y) = beta(X,Y,X)
@ B-freq = 0.000000  C-freq = 0.038675     beta(Y;X,Y) = beta(Y,Y,X)
@ B-freq = 0.000000  C-freq = 0.038675     beta(Z;X,Y) = beta(Z,Y,X)
@ B-freq = 0.019338  C-freq = 0.038675     beta(X;X,Y) = beta(X,Y,X)
@ B-freq = 0.019338  C-freq = 0.038675     beta(Y;X,Y) = beta(Y,Y,X)
@ B-freq = 0.019338  C-freq = 0.038675     beta(Z;X,Y) = beta(Z,Y,X)
@ B-freq = 0.038675  C-freq = 0.038675     beta(X;X,Y) = beta(X,Y,X)
@ B-freq = 0.038675  C-freq = 0.038675     beta(Y;X,Y) = beta(Y,Y,X)
@ B-freq = 0.038675  C-freq = 0.038675     beta(Z;X,Y) = beta(Z,Y,X)
@ B-freq = 0.000000  C-freq = 0.038675     beta(X;Y,Y) = beta(X,Y,Y)
@ B-freq = 0.000000  C-freq = 0.038675     beta(Y;Y,Y) = beta(Y,Y,Y)
@ B-freq = 0.000000  C-freq = 0.038675     beta(Z;Y,Y) = beta(Z,Y,Y)
@ B-freq = 0.019338  C-freq = 0.038675     beta(X;Y,Y) = beta(X,Y,Y)
@ B-freq = 0.019338  C-freq = 0.038675     beta(Y;Y,Y) = beta(Y,Y,Y)
@ B-freq = 0.019338  C-freq = 0.038675     beta(Z;Y,Y) = beta(Z,Y,Y)
@ B-freq = 0.038675  C-freq = 0.038675     beta(X;Y,Y) =   2011.14017331
@ B-freq = 0.038675  C-freq = 0.038675     beta(Y;Y,Y) =   1218.79563128
@ B-freq = 0.038675  C-freq = 0.038675     beta(Z;Y,Y) =      0.00000000
@ B-freq = 0.000000  C-freq = 0.038675     beta(X;Z,Y) =      0.00000000
@ B-freq = 0.000000  C-freq = 0.038675     beta(Y;Z,Y) =      0.00000000
@ B-freq = 0.000000  C-freq = 0.038675     beta(Z;Z,Y) =    -27.63885178
@ B-freq = 0.019338  C-freq = 0.038675     beta(X;Z,Y) =      0.00000000
@ B-freq = 0.019338  C-freq = 0.038675     beta(Y;Z,Y) =      0.00000000
@ B-freq = 0.019338  C-freq = 0.038675     beta(Z;Z,Y) =    -28.41668378
@ B-freq = 0.038675  C-freq = 0.038675     beta(X;Z,Y) =      0.00000000
@ B-freq = 0.038675  C-freq = 0.038675     beta(Y;Z,Y) =      0.00000000
@ B-freq = 0.038675  C-freq = 0.038675     beta(Z;Z,Y) =    -29.83294912
@ B-freq = 0.000000  C-freq = 0.000000     beta(X;X,Z) = beta(Z,X,X)
@ B-freq = 0.000000  C-freq = 0.000000     beta(Y;X,Z) = beta(Z,Y,X)
@ B-freq = 0.000000  C-freq = 0.000000     beta(Z;X,Z) = beta(Z,Z,X)
@ B-freq = 0.019338  C-freq = 0.000000     beta(X;X,Z) = beta(X,Z,X)
@ B-freq = 0.019338  C-freq = 0.000000     beta(Y;X,Z) = beta(Y,Z,X)
@ B-freq = 0.019338  C-freq = 0.000000     beta(Z;X,Z) = beta(Z,Z,X)
@ B-freq = 0.038675  C-freq = 0.000000     beta(X;X,Z) = beta(X,Z,X)
@ B-freq = 0.038675  C-freq = 0.000000     beta(Y;X,Z) = beta(Y,Z,X)
@ B-freq = 0.038675  C-freq = 0.000000     beta(Z;X,Z) = beta(Z,Z,X)
@ B-freq = 0.000000  C-freq = 0.000000     beta(X;Y,Z) = beta(Z,Y,X)
@ B-freq = 0.000000  C-freq = 0.000000     beta(Y;Y,Z) = beta(Z,Y,Y)
@ B-freq = 0.000000  C-freq = 0.000000     beta(Z;Y,Z) = beta(Z,Z,Y)
@ B-freq = 0.019338  C-freq = 0.000000     beta(X;Y,Z) = beta(X,Z,Y)
@ B-freq = 0.019338  C-freq = 0.000000     beta(Y;Y,Z) = beta(Y,Z,Y)
@ B-freq = 0.019338  C-freq = 0.000000     beta(Z;Y,Z) = beta(Z,Z,Y)
@ B-freq = 0.038675  C-freq = 0.000000     beta(X;Y,Z) = beta(X,Z,Y)
@ B-freq = 0.038675  C-freq = 0.000000     beta(Y;Y,Z) = beta(Y,Z,Y)
@ B-freq = 0.038675  C-freq = 0.000000     beta(Z;Y,Z) = beta(Z,Z,Y)
@ B-freq = 0.000000  C-freq = 0.000000     beta(X;Z,Z) = beta(Z,Z,X)
@ B-freq = 0.000000  C-freq = 0.000000     beta(Y;Z,Z) = beta(Z,Z,Y)
@ B-freq = 0.000000  C-freq = 0.000000     beta(X;Z,Z) =    -31.76125581
@ B-freq = 0.000000  C-freq = 0.000000     beta(Y;Z,Z) =    -26.28703408
@ B-freq = 0.000000  C-freq = 0.000000     beta(Z;Z,Z) =     -0.00000000
@ B-freq = 0.019338  C-freq = 0.000000     beta(X;Z,Z) =    -32.30413004
@ B-freq = 0.019338  C-freq = 0.000000     beta(Y;Z,Z) =    -26.61045994
@ B-freq = 0.019338  C-freq = 0.000000     beta(Z;Z,Z) =     -0.00000000
@ B-freq = 0.038675  C-freq = 0.000000     beta(X;Z,Z) =    -34.04795171
@ B-freq = 0.038675  C-freq = 0.000000     beta(Y;Z,Z) =    -27.63882350
@ B-freq = 0.038675  C-freq = 0.000000     beta(Z;Z,Z) =     -0.00000000
@ B-freq = 0.000000  C-freq = 0.019338     beta(X;X,Z) = beta(X,Z,X)
@ B-freq = 0.000000  C-freq = 0.019338     beta(Y;X,Z) = beta(Y,Z,X)
@ B-freq = 0.000000  C-freq = 0.019338     beta(Z;X,Z) = beta(Z,Z,X)
@ B-freq = 0.019338  C-freq = 0.019338     beta(X;X,Z) = beta(X,Z,X)
@ B-freq = 0.019338  C-freq = 0.019338     beta(Y;X,Z) = beta(Y,Z,X)
@ B-freq = 0.019338  C-freq = 0.019338     beta(Z;X,Z) = beta(Z,Z,X)
@ B-freq = 0.038675  C-freq = 0.019338     beta(X;X,Z) = beta(X,Z,X)
@ B-freq = 0.038675  C-freq = 0.019338     beta(Y;X,Z) = beta(Y,Z,X)
@ B-freq = 0.038675  C-freq = 0.019338     beta(Z;X,Z) = beta(Z,Z,X)
@ B-freq = 0.000000  C-freq = 0.019338     beta(X;Y,Z) = beta(X,Z,Y)
@ B-freq = 0.000000  C-freq = 0.019338     beta(Y;Y,Z) = beta(Y,Z,Y)
@ B-freq = 0.000000  C-freq = 0.019338     beta(Z;Y,Z) = beta(Z,Z,Y)
@ B-freq = 0.019338  C-freq = 0.019338     beta(X;Y,Z) = beta(X,Z,Y)
@ B-freq = 0.019338  C-freq = 0.019338     beta(Y;Y,Z) = beta(Y,Z,Y)
@ B-freq = 0.019338  C-freq = 0.019338     beta(Z;Y,Z) = beta(Z,Z,Y)
@ B-freq = 0.038675  C-freq = 0.019338     beta(X;Y,Z) = beta(X,Z,Y)
@ B-freq = 0.038675  C-freq = 0.019338     beta(Y;Y,Z) = beta(Y,Z,Y)
@ B-freq = 0.038675  C-freq = 0.019338     beta(Z;Y,Z) = beta(Z,Z,Y)
@ B-freq = 0.000000  C-freq = 0.019338     beta(X;Z,Z) = beta(X,Z,Z)
@ B-freq = 0.000000  C-freq = 0.019338     beta(Y;Z,Z) = beta(Y,Z,Z)
@ B-freq = 0.000000  C-freq = 0.019338     beta(Z;Z,Z) = beta(Z,Z,Z)
@ B-freq = 0.019338  C-freq = 0.019338     beta(X;Z,Z) =    -33.64528175
@ B-freq = 0.019338  C-freq = 0.019338     beta(Y;Z,Z) =    -27.39036262
@ B-freq = 0.019338  C-freq = 0.019338     beta(Z;Z,Z) =     -0.00000000
@ B-freq = 0.038675  C-freq = 0.019338     beta(X;Z,Z) =    -36.49179271
@ B-freq = 0.038675  C-freq = 0.019338     beta(Y;Z,Z) =    -29.02550284
@ B-freq = 0.038675  C-freq = 0.019338     beta(Z;Z,Z) =     -0.00000000
@ B-freq = 0.000000  C-freq = 0.038675     beta(X;X,Z) = beta(X,Z,X)
@ B-freq = 0.000000  C-freq = 0.038675     beta(Y;X,Z) = beta(Y,Z,X)
@ B-freq = 0.000000  C-freq = 0.038675     beta(Z;X,Z) = beta(Z,Z,X)
@ B-freq = 0.019338  C-freq = 0.038675     beta(X;X,Z) = beta(X,Z,X)
@ B-freq = 0.019338  C-freq = 0.038675     beta(Y;X,Z) = beta(Y,Z,X)
@ B-freq = 0.019338  C-freq = 0.038675     beta(Z;X,Z) = beta(Z,Z,X)
@ B-freq = 0.038675  C-freq = 0.038675     beta(X;X,Z) = beta(X,Z,X)
@ B-freq = 0.038675  C-freq = 0.038675     beta(Y;X,Z) = beta(Y,Z,X)
@ B-freq = 0.038675  C-freq = 0.038675     beta(Z;X,Z) = beta(Z,Z,X)
@ B-freq = 0.000000  C-freq = 0.038675     beta(X;Y,Z) = beta(X,Z,Y)
@ B-freq = 0.000000  C-freq = 0.038675     beta(Y;Y,Z) = beta(Y,Z,Y)
@ B-freq = 0.000000  C-freq = 0.038675     beta(Z;Y,Z) = beta(Z,Z,Y)
@ B-freq = 0.019338  C-freq = 0.038675     beta(X;Y,Z) = beta(X,Z,Y)
@ B-freq = 0.019338  C-freq = 0.038675     beta(Y;Y,Z) = beta(Y,Z,Y)
@ B-freq = 0.019338  C-freq = 0.038675     beta(Z;Y,Z) = beta(Z,Z,Y)
@ B-freq = 0.038675  C-freq = 0.038675     beta(X;Y,Z) = beta(X,Z,Y)
@ B-freq = 0.038675  C-freq = 0.038675     beta(Y;Y,Z) = beta(Y,Z,Y)
@ B-freq = 0.038675  C-freq = 0.038675     beta(Z;Y,Z) = beta(Z,Z,Y)
@ B-freq = 0.000000  C-freq = 0.038675     beta(X;Z,Z) = beta(X,Z,Z)
@ B-freq = 0.000000  C-freq = 0.038675     beta(Y;Z,Z) = beta(Y,Z,Z)
@ B-freq = 0.000000  C-freq = 0.038675     beta(Z;Z,Z) = beta(Z,Z,Z)
@ B-freq = 0.019338  C-freq = 0.038675     beta(X;Z,Z) = beta(X,Z,Z)
@ B-freq = 0.019338  C-freq = 0.038675     beta(Y;Z,Z) = beta(Y,Z,Z)
@ B-freq = 0.019338  C-freq = 0.038675     beta(Z;Z,Z) = beta(Z,Z,Z)
@ B-freq = 0.038675  C-freq = 0.038675     beta(X;Z,Z) =    -41.16222999
@ B-freq = 0.038675  C-freq = 0.038675     beta(Y;Z,Z) =    -31.62007106
@ B-freq = 0.038675  C-freq = 0.038675     beta(Z;Z,Z) =     -0.00000000

  Total CPU  time used in RESPONSE:  1 minute  30 seconds
  Total wall time used in RESPONSE:  1 minute  31 seconds


                   .-------------------------------------------.
                   | End of Dynamic Property Section (RESPONS) |
                   `-------------------------------------------'

  Total CPU  time used in DALTON:  1 minute  50 seconds
  Total wall time used in DALTON:  1 minute  51 seconds

 
     Date and time (Linux)  : Tue May  6 05:15:05 2025
     Host name              : xm048                                   
