

     ************************************************************************
     *************** Dalton - An Electronic Structure Program ***************
     ************************************************************************

    This is output from DALTON release Dalton2020.0 (2020)
         ( Web site: http://daltonprogram.org )

   ----------------------------------------------------------------------------

    NOTE:
     
    Dalton is an experimental code for the evaluation of molecular
    properties using (MC)SCF, DFT, CI, and CC wave functions.
    The authors accept no responsibility for the performance of
    the code or for the correctness of the results.
     
    The code (in whole or part) is provided under a licence and
    is not to be reproduced for further distribution without
    the written permission of the authors or their representatives.
     
    See the home page "http://daltonprogram.org" for further information.
     
    If results obtained with this code are published,
    the appropriate citations would be both of:
     
       K. Aidas, C. Angeli, K. L. Bak, V. Bakken, R. Bast,
       L. Boman, O. Christiansen, R. Cimiraglia, S. Coriani,
       P. Dahle, E. K. Dalskov, U. Ekstroem,
       T. Enevoldsen, J. J. Eriksen, P. Ettenhuber, B. Fernandez,
       L. Ferrighi, H. Fliegl, L. Frediani, K. Hald, A. Halkier,
       C. Haettig, H. Heiberg, T. Helgaker, A. C. Hennum,
       H. Hettema, E. Hjertenaes, S. Hoest, I.-M. Hoeyvik,
       M. F. Iozzi, B. Jansik, H. J. Aa. Jensen, D. Jonsson,
       P. Joergensen, J. Kauczor, S. Kirpekar,
       T. Kjaergaard, W. Klopper, S. Knecht, R. Kobayashi, H. Koch,
       J. Kongsted, A. Krapp, K. Kristensen, A. Ligabue,
       O. B. Lutnaes, J. I. Melo, K. V. Mikkelsen, R. H. Myhre,
       C. Neiss, C. B. Nielsen, P. Norman, J. Olsen,
       J. M. H. Olsen, A. Osted, M. J. Packer, F. Pawlowski,
       T. B. Pedersen, P. F. Provasi, S. Reine, Z. Rinkevicius,
       T. A. Ruden, K. Ruud, V. Rybkin, P. Salek, C. C. M. Samson,
       A. Sanchez de Meras, T. Saue, S. P. A. Sauer,
       B. Schimmelpfennig, K. Sneskov, A. H. Steindal,
       K. O. Sylvester-Hvid, P. R. Taylor, A. M. Teale,
       E. I. Tellgren, D. P. Tew, A. J. Thorvaldsen, L. Thoegersen,
       O. Vahtras, M. A. Watson, D. J. D. Wilson, M. Ziolkowski
       and H. Agren,
       "The Dalton quantum chemistry program system",
       WIREs Comput. Mol. Sci. 2014, 4:269–284 (doi: 10.1002/wcms.1172)
     
    and
     
       Dalton, a molecular electronic structure program,
       Release Dalton2020.0 (2020), see http://daltonprogram.org
   ----------------------------------------------------------------------------

    Authors in alphabetical order (Major contribution(s) in parenthesis):

  Kestutis Aidas,           Vilnius University,           Lithuania   (QM/MM)
  Celestino Angeli,         University of Ferrara,        Italy       (NEVPT2)
  Keld L. Bak,              UNI-C,                        Denmark     (AOSOPPA, non-adiabatic coupling, magnetic properties)
  Vebjoern Bakken,          University of Oslo,           Norway      (DALTON; geometry optimizer, symmetry detection)
  Radovan Bast,             UiT The Arctic U. of Norway,  Norway      (DALTON installation and execution frameworks)
  Pablo Baudin,             University of Valencia,       Spain       (Cholesky excitation energies)
  Linus Boman,              NTNU,                         Norway      (Cholesky decomposition and subsystems)
  Bruno N. Cabral Tenorio,  Technical Univ. of Denmark,   Denmark     (Lanczos-based CC methods)
  Ove Christiansen,         Aarhus University,            Denmark     (CC module)
  Renzo Cimiraglia,         University of Ferrara,        Italy       (NEVPT2)
  Sonia Coriani,            Technical Univ. of Denmark,   Denmark     (CC and RESPONS modules)
  Janusz Cukras,            University of Warsaw,         Poland      (MChD in RESPONS)
  Paal Dahle,               University of Oslo,           Norway      (Parallelization)
  Erik K. Dalskov,          UNI-C,                        Denmark     (SOPPA)
  Thomas Enevoldsen,        Univ. of Southern Denmark,    Denmark     (SOPPA)
  Janus J. Eriksen,         Aarhus University,            Denmark     (Polarizable embedding, TDA)
  Rasmus Faber,             Technical Univ. of Denmark,   Denmark     (Vib.avg. NMR w. SOPPA, parallel AO-SOPPA, CVS-CC and EOMCC)
  Tobias Fahleson,          KTH Stockholm,                Sweden      (Damped cubic response)
  Berta Fernandez,          U. of Santiago de Compostela, Spain       (Doublet spin, ESR in RESPONS)
  Lara Ferrighi,            Aarhus University,            Denmark     (PCM Cubic response)
  Heike Fliegl,             University of Oslo,           Norway      (CCSD(R12))
  Luca Frediani,            UiT The Arctic U. of Norway,  Norway      (PCM)
  Emmanuel Fromager,        Univ. Strasbourg,             France      (MC-srDFT)
  Bin Gao,                  UiT The Arctic U. of Norway,  Norway      (Gen1Int library)
  Andre S. P. Gomes,        CNRS/Universite de Lille,     France      (Frozen density embedding)
  Christof Haettig,         Ruhr-University Bochum,       Germany     (CC module)
  Kasper Hald,              Aarhus University,            Denmark     (CC module)
  Asger Halkier,            Aarhus University,            Denmark     (CC module)
  Frederik Beyer Hansen,    University of Copenhagen,     Denmark     (Parallel AO-SOPPA)
  Erik D. Hedegaard,        Univ. of Southern Denmark,    Denmark     (Polarizable embedding, QM/MM, and MC-srDFT)
  Hanne Heiberg,            University of Oslo,           Norway      (Geometry analysis, selected one-electron integrals)
  Trygve Helgaker,          University of Oslo,           Norway      (DALTON; ABACUS, ERI, DFT modules, London, and much more)
  Alf Christian Hennum,     University of Oslo,           Norway      (Parity violation)
  Hinne Hettema,            University of Auckland,       New Zealand (Quadratic response in RESPONS; SIRIUS supersymmetry)
  Eirik Hjertenaes,         NTNU,                         Norway      (Cholesky decomposition)
  Pi A. B. Haase,           University of Copenhagen,     Denmark     (Triplet AO-SOPPA)
  Maria Francesca Iozzi,    University of Oslo,           Norway      (RPA)
  Christoph Jacob           TU Braunschweig               Germany     (Frozen density embedding)
  Brano Jansik              Technical Univ. of Ostrava    Czech Rep.  (DFT cubic response)
  Hans Joergen Aa. Jensen,  Univ. of Southern Denmark,    Denmark     (DALTON; SIRIUS, RESPONS, ABACUS, MC-srDFT, and much more)
  Dan Jonsson,              UiT The Arctic U. of Norway,  Norway      (Cubic response in RESPONS module)
  Poul Joergensen,          Aarhus University,            Denmark     (RESPONS, ABACUS, and CC modules)
  Maciej Kaminski,          University of Warsaw,         Poland      (CPPh in RESPONS)
  Joanna Kauczor,           Linkoeping University,        Sweden      (Complex polarization propagator (CPP) module)
  Sheela Kirpekar,          Univ. of Southern Denmark,    Denmark     (Mass-velocity & Darwin integrals)
  Erik Kjellgren,           Univ. of Southern Denmark,    Denmark     (MC-srDFT)
  Wim Klopper,              KIT Karlsruhe,                Germany     (R12 code in CC, SIRIUS, and ABACUS modules)
  Stefan Knecht,            ETH Zurich,                   Switzerland (Parallel CI and MCSCF, MC-srDFT)
  Rika Kobayashi,           Australian National Univ.,    Australia   (DIIS in CC, London in MCSCF)
  Henrik Koch,              NTNU,                         Norway      (CC module, Cholesky decomposition)
  Jacob Kongsted,           Univ. of Southern Denmark,    Denmark     (Polarizable embedding, polarizable density embedding, QM/MM)
  Andrea Ligabue,           University of Modena,         Italy       (CTOCD, AOSOPPA)
  Nanna H. List             Univ. of Southern Denmark,    Denmark     (Polarizable embedding)
  Ola B. Lutnaes,           University of Oslo,           Norway      (DFT Hessian)
  Juan I. Melo,             University of Buenos Aires,   Argentina   (LRESC, Relativistic Effects on NMR Shieldings)
  Kurt V. Mikkelsen,        University of Copenhagen,     Denmark     (MC-SCRF and QM/MM)
  Rolf H. Myhre,            NTNU,                         Norway      (Subsystems and CC3)
  Christian Neiss,          Univ. Erlangen-Nuernberg,     Germany     (CCSD(R12))
  Christian B. Nielsen,     University of Copenhagen,     Denmark     (QM/MM)
  Patrick Norman,           KTH Stockholm,                Sweden      (Cubic response and complex frequency response in RESPONS)
  Jeppe Olsen,              Aarhus University,            Denmark     (SIRIUS CI/density modules)
  Jogvan Magnus H. Olsen,   Aarhus University,            Denmark     (Polarizable embedding and polarizable density embedding)
  Anders Osted,             Copenhagen University,        Denmark     (QM/MM)
  Martin J. Packer,         University of Sheffield,      UK          (SOPPA)
  Filip Pawlowski,          Kazimierz Wielki University,  Poland      (CC3)
  Morten N. Pedersen,       Univ. of Southern Denmark,    Denmark     (Polarizable embedding)
  Thomas B. Pedersen,       University of Oslo,           Norway      (Cholesky decomposition)
  Patricio F. Provasi,      University of Northeastern,   Argentina   (Analysis of coupling constants in localized orbitals)
  Peter Reinholdt,          Univ. of Southern Denmark,    Denmark     (Polarizable embedding and polarizable density embedding)
  Zilvinas Rinkevicius,     KTH Stockholm,                Sweden      (open-shell DFT, ESR)
  Elias Rudberg,            KTH Stockholm,                Sweden      (DFT grid and basis info)
  Torgeir A. Ruden,         University of Oslo,           Norway      (Numerical derivatives in ABACUS)
  Kenneth Ruud,             UiT The Arctic U. of Norway,  Norway      (DALTON; ABACUS magnetic properties and much more)
  Pawel Salek,              KTH Stockholm,                Sweden      (DALTON; DFT code)
  Claire C. M. Samson       University of Karlsruhe       Germany     (Boys localization, r12 integrals in ERI)
  Alfredo Sanchez de Meras, University of Valencia,       Spain       (CC module, Cholesky decomposition)
  Trond Saue,               Paul Sabatier University,     France      (direct Fock matrix construction)
  Stephan P. A. Sauer,      University of Copenhagen,     Denmark     (SOPPA(CCSD), SOPPA prop., AOSOPPA, vibrational g-factors)
  Bernd Schimmelpfennig,    Forschungszentrum Karlsruhe,  Germany     (AMFI module)
  Anna K. Schnack-Petersen, University of Copenhagen,     Denmark     (RPA(D) and HRPA(D) properties in AOSOPPA)
  Kristian Sneskov,         Aarhus University,            Denmark     (Polarizable embedding, QM/MM)
  Arnfinn H. Steindal,      UiT The Arctic U. of Norway,  Norway      (parallel QM/MM, polarizable embedding)
  Casper Steinmann,         Aalborg University,           Denmark     (QFIT, polarizable embedding)
  K. O. Sylvester-Hvid,     University of Copenhagen,     Denmark     (MC-SCRF)
  Peter R. Taylor,          VLSCI/Univ. of Melbourne,     Australia   (Symmetry handling ABACUS, integral transformation)
  Andrew M. Teale,          University of Nottingham,     England     (DFT-AC, DFT-D)
  David P. Tew,             University of Bristol,        England     (CCSD(R12))
  Julien Toulouse,          Sorbonne Univ.,               France      (MC-srDFT)
  Olav Vahtras,             KTH Stockholm,                Sweden      (Triplet response, spin-orbit, ESR, TDDFT, open-shell DFT)
  Lucas Visscher,           Vrije Universiteit Amsterdam, Netherlands (Frozen density embedding)
  David J. Wilson,          La Trobe University,          Australia   (DFT Hessian and DFT magnetizabilities)
  Hans Agren,               KTH Stockholm,                Sweden      (SIRIUS module, RESPONS, MC-SCRF solvation)
 --------------------------------------------------------------------------------

     Date and time (Linux)  : Tue May 27 12:47:33 2025
     Host name              : xm059                                   

 * Work memory size             :   131072000 = 1000.00 megabytes.

 * Directories for basis set searches:
   1) /gpfs/projects/rjh/adrian/summer2025/beta_projects/raw_data/NLO/dalton/hf/n11/dipole
   2) /gpfs/projects/rjh/adrian/dalton/build/basis


Compilation information
-----------------------

 Who compiled             | ahurtado
 Host                     | milan2
 System                   | Linux-5.14.0-427.42.1.el9_4.x86_64
 CMake generator          | Unix Makefiles
 Processor                | x86_64
 64-bit integers          | OFF
 MPI                      | ON
 Fortran compiler         | /gpfs/software/openmpi/milan/gcc13.2/4.1.6/bin/mpi
                          | f90
 Fortran compiler version | GNU Fortran (GCC) 13.2.0
 C compiler               | /gpfs/software/openmpi/milan/gcc13.2/4.1.6/bin/mpi
                          | cc
 C compiler version       | gcc (GCC) 13.2.0
 C++ compiler             | /gpfs/software/openmpi/milan/gcc13.2/4.1.6/bin/mpi
                          | cxx
 C++ compiler version     | unknown
 BLAS                     | /gpfs/software/intel/oneAPI/2024_2/mkl/2024.2/lib/
                          | intel64/libmkl_gf_lp64.so;/gpfs/software/intel/one
                          | API/2024_2/mkl/2024.2/lib/intel64/libmkl_sequentia
                          | l.so;/gpfs/software/intel/oneAPI/2024_2/mkl/2024.2
                          | /lib/intel64/libmkl_core.so;/usr/lib64/libpthread.
                          | a;/usr/lib64/libm.so
 LAPACK                   | /gpfs/software/intel/oneAPI/2024_2/mkl/2024.2/lib/
                          | intel64/libmkl_lapack95_lp64.a;/gpfs/software/inte
                          | l/oneAPI/2024_2/mkl/2024.2/lib/intel64/libmkl_gf_l
                          | p64.so
 Static linking           | OFF
 Last Git revision        | 66052b3af5ea7225e31178bf9a8b031913c72190
 Git branch               | (HEAD detached at Dalton2020.0)
 Configuration time       | 2025-04-10 16:02:31.569498

 * MPI parallel run using 576 processes.


   Content of the .dal input file
 ----------------------------------

**DALTON INPUT
.RUN RESPONSE
.DIRECT
**WAVE FUNCTIONS
.HF
**PROPERTIES
**RESPONSE
*QUADRA
.DIPLEN
.FREQUENCIES
2
0.0 0.0164
**END OF DALTON INPUT


   Content of the .mol file
 ----------------------------

BASIS
aug-cc-pVDZ
blah
blah
Atomtype=4 Angstrom Charge=0 Nosymmetry
Charge=6 Atoms=22
C_a -1.8122620012835433 -0.9657169975135246 0.0
C_b -0.47990300170099354 -0.6199950004480934 0.0
C_c 0.0 0.7347809988410869 0.0
C_d 1.33440499976634 1.0741329987742174 0.0
C_e 1.822035999616516 2.426000999954059 0.0
C_f 3.1583140009529345 2.7579619976610776 0.0
C_g 3.6555709988538028 4.106602001980516 0.0
C_h 4.993888999504442 4.428659998534144 0.0
C_i 5.504787000539432 5.773048000464584 0.0
C_j 6.845650999753135 6.080100002436257 0.0
C_k 7.378550998559059 7.417604001534356 0.0
C_l 8.72333499967156 7.6973089984010015 0.0
C_m 9.297041001506793 9.019440997499384 0.0
C_n 10.650860999830723 9.227377001932195 0.0
C_o -7.171002997440654 -6.1446729997378835 0.0
C_p -5.8529999987804215 -5.769760000200263 0.0
C_q -5.403531999922006 -4.399889998867221 0.0
C_r -4.078087002227869 -4.038480998483878 0.0
C_s -3.6145510018522695 -2.6759249988010225 0.0
C_t -2.2848440003198527 -2.323654999973166 0.0
C_u -8.882541000978819 -7.916753998612093 0.0
C_v -7.585979998306329 -7.530289002356054 0.0
Charge=7 Atoms=2
N_a 11.282005002092449 10.441887998568792 0.0
N_b -9.247999000789601 -9.328862998985626 0.0
Charge=8 Atoms=2
O_a -10.462299998741914 -9.564712000592682 0.0
O_b -8.352355998769958 -10.176287997998127 0.0
Charge=1 Atoms=24
H_a -2.5644380022665603 -0.16330899797727702 0.0
H_b 0.27023400011273024 -1.4248459994951204 0.0
H_c -0.7479299994635872 1.5412280016472666 0.0
H_d 2.080228000789063 0.26520700182338897 0.0
H_e 1.0786390009325657 3.23667100094632 0.0
H_f 3.899079999338471 1.9442640023351856 0.0
H_g 2.9178589985700296 4.922449001834255 0.0
H_h 5.727755998175488 3.608514000063327 0.0
H_i 4.7752170001956085 6.596111998494022 0.0
H_j 7.568522997762397 5.24983899854614 0.0
H_k 6.662887997566072 8.252460999459268 0.0
H_l 9.424485998300522 6.848155997665916 0.0
H_m 8.61886099820631 9.883707997885121 0.0
H_n 11.32836600055659 8.364257998587286 0.0
H_o 10.750808001385902 11.301844998743242 0.0
H_p 12.288097998525666 10.505195997748313 0.0
H_q -7.948397001899416 -5.3685600010118515 0.0
H_r -5.083876002228872 -6.5560159978200385 0.0
H_s -6.168483000242109 -3.610195000266058 0.0
H_t -3.317323000168205 -4.833130000669942 0.0
H_u -1.5302499981574886 -3.124286001268895 0.0
H_v -4.371808998512132 -1.878615002552244 0.0
H_w -9.751719998862473 -7.256207000195811 0.0
H_x -6.820033001807389 -8.315199000698087 0.0


       *******************************************************************
       *********** Output from DALTON general input processing ***********
       *******************************************************************

 --------------------------------------------------------------------------------
   Overall default print level:    0
   Print level for DALTON.STAT:    1

    Parallel calculation using MPI
    AO-direct calculation (in sections where implemented)
    HERMIT 1- and 2-electron integral sections will be executed
    "Old" integral transformation used (limited to max 255 basis functions)
    Wave function sections will be executed (SIRIUS module)
    Dynamic molecular response properties section will be executed (RESPONSE module)
 --------------------------------------------------------------------------------


   ****************************************************************************
   *************** Output of molecule and basis set information ***************
   ****************************************************************************


    The two title cards from your ".mol" input:
    ------------------------------------------------------------------------
 1: blah                                                                    
 2: blah                                                                    
    ------------------------------------------------------------------------

  Coordinates are entered in Angstrom and converted to atomic units.
          - Conversion factor : 1 bohr = 0.52917721 A

  Atomic type no.    1
  --------------------
  Nuclear charge:   6.00000
  Number of symmetry independent centers:   22
  Number of basis sets to read;    2
  Basis set file used for this atomic type with Z =   6 :
     "/gpfs/projects/rjh/adrian/dalton/build/basis/aug-cc-pVDZ"

  Atomic type no.    2
  --------------------
  Nuclear charge:   7.00000
  Number of symmetry independent centers:    2
  Number of basis sets to read;    2
  Basis set file used for this atomic type with Z =   7 :
     "/gpfs/projects/rjh/adrian/dalton/build/basis/aug-cc-pVDZ"

  Atomic type no.    3
  --------------------
  Nuclear charge:   8.00000
  Number of symmetry independent centers:    2
  Number of basis sets to read;    2
  Basis set file used for this atomic type with Z =   8 :
     "/gpfs/projects/rjh/adrian/dalton/build/basis/aug-cc-pVDZ"

  Atomic type no.    4
  --------------------
  Nuclear charge:   1.00000
  Number of symmetry independent centers:   24
  Number of basis sets to read;    2
  Basis set file used for this atomic type with Z =   1 :
     "/gpfs/projects/rjh/adrian/dalton/build/basis/aug-cc-pVDZ"


                         SYMGRP: Point group information
                         -------------------------------

@    Point group: C1 


                                 Isotopic Masses
                                 ---------------

                           C_a        12.000000
                           C_b        12.000000
                           C_c        12.000000
                           C_d        12.000000
                           C_e        12.000000
                           C_f        12.000000
                           C_g        12.000000
                           C_h        12.000000
                           C_i        12.000000
                           C_j        12.000000
                           C_k        12.000000
                           C_l        12.000000
                           C_m        12.000000
                           C_n        12.000000
                           C_o        12.000000
                           C_p        12.000000
                           C_q        12.000000
                           C_r        12.000000
                           C_s        12.000000
                           C_t        12.000000
                           C_u        12.000000
                           C_v        12.000000
                           N_a        14.003074
                           N_b        14.003074
                           O_a        15.994915
                           O_b        15.994915
                           H_a         1.007825
                           H_b         1.007825
                           H_c         1.007825
                           H_d         1.007825
                           H_e         1.007825
                           H_f         1.007825
                           H_g         1.007825
                           H_h         1.007825
                           H_i         1.007825
                           H_j         1.007825
                           H_k         1.007825
                           H_l         1.007825
                           H_m         1.007825
                           H_n         1.007825
                           H_o         1.007825
                           H_p         1.007825
                           H_q         1.007825
                           H_r         1.007825
                           H_s         1.007825
                           H_t         1.007825
                           H_u         1.007825
                           H_v         1.007825
                           H_w         1.007825
                           H_x         1.007825

                       Total mass:   348.183778 amu
                       Natural abundance:  77.170 %

 Center-of-mass coordinates (a.u.):   -0.209926   -0.214777    0.000000
 Center-of-mass coordinates (Angs):   -0.111088   -0.113655    0.000000


  Atoms and basis sets
  --------------------

  Number of atom types :    4
  Total number of atoms:   50

  Basis set used is "aug-cc-pVDZ" from the basis set library.

  label    atoms   charge   prim   cont     basis
  ----------------------------------------------------------------------
  C_         22    6.0000    35    23      [10s5p2d|4s3p2d]                                   
  N_          2    7.0000    35    23      [10s5p2d|4s3p2d]                                   
  O_          2    8.0000    35    23      [10s5p2d|4s3p2d]                                   
  H_         24    1.0000    11     9      [5s2p|3s2p]                                        
  ----------------------------------------------------------------------
  total:     50  186.0000  1174   814
  ----------------------------------------------------------------------
  Spherical harmonic basis used.

  Threshold for neglecting AO integrals:  1.00D-12

  Max    interatomic separation is   30.3378 Angstrom (   57.3301 Bohr)
  between atoms   42 and   25, "H_p   " and "O_a   ".

  Min HX interatomic separation is    1.0081 Angstrom (    1.9050 Bohr)

  Min YX interatomic separation is    1.2330 Angstrom (    2.3300 Bohr)


  Bond distances (Angstrom):
  --------------------------

                  atom 1     atom 2       distance
                  ------     ------       --------
  bond distance:  C_b        C_a          1.376483
  bond distance:  C_c        C_b          1.437263
  bond distance:  C_d        C_c          1.376879
  bond distance:  C_e        C_d          1.437126
  bond distance:  C_f        C_e          1.376894
  bond distance:  C_g        C_f          1.437392
  bond distance:  C_h        C_g          1.376523
  bond distance:  C_i        C_h          1.438192
  bond distance:  C_j        C_i          1.375572
  bond distance:  C_k        C_j          1.439757
  bond distance:  C_l        C_k          1.373564
  bond distance:  C_m        C_l          1.441240
  bond distance:  C_n        C_m          1.369696
  bond distance:  C_p        C_o          1.370289
  bond distance:  C_q        C_p          1.441723
  bond distance:  C_r        C_q          1.373834
  bond distance:  C_s        C_r          1.439244
  bond distance:  C_t        C_a          1.437821
  bond distance:  C_t        C_s          1.375578
  bond distance:  C_v        C_o          1.446422
  bond distance:  C_v        C_u          1.352932
  bond distance:  N_a        C_n          1.368715
  bond distance:  N_b        C_u          1.458633
  bond distance:  O_a        N_b          1.236993
  bond distance:  O_b        N_b          1.233007
  bond distance:  H_a        C_a          1.099831
  bond distance:  H_b        C_b          1.100223
  bond distance:  H_c        C_c          1.099889
  bond distance:  H_d        C_d          1.100279
  bond distance:  H_e        C_e          1.099920
  bond distance:  H_f        C_f          1.100381
  bond distance:  H_g        C_g          1.099921
  bond distance:  H_h        C_h          1.100545
  bond distance:  H_i        C_i          1.099867
  bond distance:  H_j        C_j          1.100853
  bond distance:  H_k        C_k          1.099618
  bond distance:  H_l        C_l          1.101215
  bond distance:  H_m        C_m          1.098583
  bond distance:  H_n        C_n          1.097264
  bond distance:  H_o        N_a          1.010790
  bond distance:  H_p        N_a          1.008083
  bond distance:  H_q        C_o          1.098496
  bond distance:  H_r        C_p          1.099886
  bond distance:  H_s        C_q          1.099440
  bond distance:  H_t        C_r          1.100104
  bond distance:  H_u        C_t          1.100192
  bond distance:  H_v        C_s          1.099610
  bond distance:  H_w        C_u          1.091693
  bond distance:  H_x        C_v          1.096703


  Bond angles (degrees):
  ----------------------

                  atom 1     atom 2     atom 3         angle
                  ------     ------     ------         -----
  bond angle:     C_b        C_a        C_t          123.735
  bond angle:     C_b        C_a        H_a          118.603
  bond angle:     C_t        C_a        H_a          117.662
  bond angle:     C_a        C_b        C_c          124.052
  bond angle:     C_a        C_b        H_b          118.438
  bond angle:     C_c        C_b        H_b          117.509
  bond angle:     C_b        C_c        C_d          123.774
  bond angle:     C_b        C_c        H_c          117.650
  bond angle:     C_d        C_c        H_c          118.576
  bond angle:     C_c        C_d        C_e          124.103
  bond angle:     C_c        C_d        H_d          118.407
  bond angle:     C_e        C_d        H_d          117.489
  bond angle:     C_d        C_e        C_f          123.786
  bond angle:     C_d        C_e        H_e          117.644
  bond angle:     C_f        C_e        H_e          118.570
  bond angle:     C_e        C_f        C_g          124.191
  bond angle:     C_e        C_f        H_f          118.363
  bond angle:     C_g        C_f        H_f          117.447
  bond angle:     C_f        C_g        C_h          123.770
  bond angle:     C_f        C_g        H_g          117.640
  bond angle:     C_h        C_g        H_g          118.590
  bond angle:     C_g        C_h        C_i          124.339
  bond angle:     C_g        C_h        H_h          118.292
  bond angle:     C_i        C_h        H_h          117.370
  bond angle:     C_h        C_i        C_j          123.706
  bond angle:     C_h        C_i        H_i          117.638
  bond angle:     C_j        C_i        H_i          118.656
  bond angle:     C_i        C_j        C_k          124.622
  bond angle:     C_i        C_j        H_j          118.147
  bond angle:     C_k        C_j        H_j          117.232
  bond angle:     C_j        C_k        C_l          123.473
  bond angle:     C_j        C_k        H_k          117.672
  bond angle:     C_l        C_k        H_k          118.855
  bond angle:     C_k        C_l        C_m          125.207
  bond angle:     C_k        C_l        H_l          117.797
  bond angle:     C_m        C_l        H_l          116.996
  bond angle:     C_l        C_m        C_n          122.189
  bond angle:     C_l        C_m        H_m          118.422
  bond angle:     C_n        C_m        H_m          119.389
  bond angle:     C_m        C_n        N_a          126.191
  bond angle:     C_m        C_n        H_n          119.398
  bond angle:     N_a        C_n        H_n          114.410
  bond angle:     C_p        C_o        C_v          122.551
  bond angle:     C_p        C_o        H_q          119.169
  bond angle:     C_v        C_o        H_q          118.280
  bond angle:     C_o        C_p        C_q          124.044
  bond angle:     C_o        C_p        H_r          118.490
  bond angle:     C_q        C_p        H_r          117.466
  bond angle:     C_p        C_q        C_r          123.417
  bond angle:     C_p        C_q        H_s          117.747
  bond angle:     C_r        C_q        H_s          118.836
  bond angle:     C_q        C_r        C_s          124.040
  bond angle:     C_q        C_r        H_t          118.500
  bond angle:     C_s        C_r        H_t          117.460
  bond angle:     C_r        C_s        C_t          123.626
  bond angle:     C_r        C_s        H_v          117.688
  bond angle:     C_t        C_s        H_v          118.686
  bond angle:     C_a        C_t        C_s          124.027
  bond angle:     C_a        C_t        H_u          117.507
  bond angle:     C_s        C_t        H_u          118.466
  bond angle:     C_v        C_u        N_b          121.108
  bond angle:     C_v        C_u        H_w          126.169
  bond angle:     N_b        C_u        H_w          112.724
  bond angle:     C_o        C_v        C_u          123.270
  bond angle:     C_o        C_v        H_x          119.028
  bond angle:     C_u        C_v        H_x          117.702
  bond angle:     C_n        N_a        H_o          120.837
  bond angle:     C_n        N_a        H_p          121.060
  bond angle:     H_o        N_a        H_p          118.103
  bond angle:     C_u        N_b        O_a          115.501
  bond angle:     C_u        N_b        O_b          118.905
  bond angle:     O_a        N_b        O_b          125.593




 Principal moments of inertia (u*A**2) and principal axes
 --------------------------------------------------------

   IA     132.140063          0.723824    0.689984    0.000000
   IB   30250.886736         -0.689984    0.723824    0.000000
   IC   30383.026799          0.000000    0.000000    1.000000


 Rotational constants
 --------------------

@    The molecule is planar.

               A                   B                   C

           3824.5706             16.7063             16.6336 MHz
            0.127574            0.000557            0.000555 cm-1


@  Nuclear repulsion energy : 1581.530184833914 Hartree


                     .---------------------------------------.
                     | Starting in Integral Section (HERMIT) |
                     `---------------------------------------'



 ***************************************************************************************
 ****************** Output from **INTEGRALS input processing (HERMIT) ******************
 ***************************************************************************************


 - Using defaults, no **INTEGRALS input found

 Default print level:        1

 Calculation of one-electron Hamiltonian integrals.

 Center of mass  (bohr):     -0.209925642482     -0.214776861006      0.000000000000
 Operator center (bohr):      0.000000000000      0.000000000000      0.000000000000
 Gauge origin    (bohr):      0.000000000000      0.000000000000      0.000000000000
 Dipole origin   (bohr):      0.000000000000      0.000000000000      0.000000000000


     ************************************************************************
     ************************** Output from HERINT **************************
     ************************************************************************



                      Nuclear contribution to dipole moments
                      --------------------------------------

                 au               Debye          C m (/(10**-30)

      x      0.00001132         0.00002877         0.00009597
      y     -0.00001130        -0.00002872        -0.00009581
      z      0.00000000         0.00000000         0.00000000


  Time used in ONEDRV     is       1.65 seconds
  Time used in HUCKEL     is       0.41 seconds
  Time used in OVERLAP    is       0.19 seconds
  Time used in POPOVLP    is       0.36 seconds
  Time used in R2         is       0.23 seconds
  Time used in R4         is       0.27 seconds
  Time used in DIPLEN     is       0.24 seconds
  Time used in QUADRUP    is       0.47 seconds
  Time used in KINENE     is       0.34 seconds
  Time used in GABGEN     is       1.14 seconds
  Total CPU  time used in HERMIT:   5.29 seconds
  Total wall time used in HERMIT:   5.33 seconds


                        .----------------------------------.
                        | End of Integral Section (HERMIT) |
                        `----------------------------------'



                   .--------------------------------------------.
                   | Starting in Wave Function Section (SIRIUS) |
                   `--------------------------------------------'



@ Primary orbitals are deleted during canonical orthonormalization
@   because of detected numerical linear dependence or too large coefficients.
@ Eigenvalue threshold for num. lin. dep. =  1.00D-06

@   2 MO components are deleted in symmetry    1
 Overlap eigenvalues of the deleted orbitals:
  9.02D-07  1.92D-07

 Max MO coeff. of last deleted MO & limit:  2.28D+02  1.00D+03

WARNING: Orbitals have been deleted because of numerical
   linear dependence although not requested in input.

 *** Output from Huckel module :

     Using EWMO model:          T
     Using EHT  model:          F
     Number of Huckel orbitals each symmetry:  154

 EWMO - Energy Weighted Maximum Overlap - is a Huckel type method,
        which normally is better than Extended Huckel Theory.
 Reference: Linderberg and Ohrn, Propagators in Quantum Chemistry (Wiley, 1973)

 Huckel EWMO eigenvalues for symmetry :  1
          -20.684752     -20.683496     -15.677078     -15.674963     -11.359374
          -11.359347     -11.359080     -11.358962     -11.358805     -11.358177
          -11.357067     -11.355666     -11.354101     -11.352519     -11.351100
          -11.348548     -11.347673     -11.346826     -11.346154     -11.345689
          -11.345479     -11.345449     -11.345343     -11.345315     -11.345201
          -11.345199      -1.964023      -1.792553      -1.788416      -1.777016
           -1.753857      -1.715146      -1.659142      -1.586856      -1.502143
           -1.445579      -1.402688      -1.305298      -1.210238      -1.204574
           -1.181381      -1.138478      -1.110079      -1.082419      -1.029091
           -1.004500      -0.962900      -0.921724      -0.897947      -0.852013
           -0.851456      -0.837210      -0.815275      -0.781973      -0.760999
           -0.749335      -0.739750      -0.729381      -0.693878      -0.690068
           -0.669188      -0.654194      -0.645832      -0.629887      -0.604027
           -0.599317      -0.596036      -0.585320      -0.556702      -0.554676
           -0.551379      -0.536644      -0.521781      -0.512788      -0.505246
           -0.501020      -0.494401      -0.493830      -0.489009      -0.487602
           -0.480786      -0.480021      -0.475253      -0.474908      -0.469443
           -0.461643      -0.435957      -0.421846      -0.404684      -0.386742
           -0.379984      -0.364149      -0.356816      -0.335710      -0.302570
           -0.279750      -0.259927      -0.243265      -0.229601      -0.229166
           -0.218679      -0.210184      -0.203785      -0.200939      -0.199174
           -0.196080      -0.194301      -0.190582      -0.166681      -0.142726
           -0.138983      -0.134902      -0.132334      -0.131510      -0.131082
           -0.130349      -0.129767      -0.129600      -0.129276      -0.129072
           -0.128577      -0.127914      -0.127154      -0.126973      -0.126563
           -0.126448      -0.125539      -0.124985      -0.124687      -0.124034
           -0.123697      -0.123194      -0.112462      -0.111162      -0.108141
           -0.106084      -0.102673      -0.101291      -0.097465      -0.096447
           -0.093387      -0.092388      -0.090411      -0.089125      -0.088105
           -0.086854      -0.086313      -0.085269      -0.085053      -0.083702
           -0.082341      -0.081033      -0.079936      -0.079338

 **********************************************************************
 *SIRIUS* a direct, restricted step, second order MCSCF program       *
 **********************************************************************

 
     Date and time (Linux)  : Tue May 27 12:48:11 2025
     Host name              : xm059                                   

 Title lines from ".mol" input file:
     blah                                                                    
     blah                                                                    

 Print level on unit LUPRI =   2 is   0
 Print level on unit LUW4  =   2 is   5

@    Restricted, closed shell Hartree-Fock calculation.

@    Time-dependent Hartree-Fock calculation (random phase approximation).
 Fock matrices are calculated directly and in parallel without use of integrals on disk.

 Initial molecular orbitals are obtained according to
 ".MOSTART EWMO  " input option

     Wave function specification
     ============================
@    Wave function type        --- HF ---
@    Number of closed shell electrons         186
@    Number of electrons in active shells       0
@    Total charge of the molecule               0

@    Spin multiplicity and 2 M_S                1         0
@    Total number of symmetries                 1 (point group: C1 )
@    Reference state symmetry                   1 (irrep name : A  )

     Orbital specifications
     ======================
@    Abelian symmetry species          All |    1
@                                          |  A  
                                       --- |  ---
@    Occupied SCF orbitals              93 |   93
@    Secondary orbitals                719 |  719
@    Total number of orbitals          812 |  812
@    Number of basis functions         814 |  814

     Optimization information
     ========================
@    Number of configurations                 1
@    Number of orbital rotations          66867
     ------------------------------------------
@    Total number of variables            66868

     Maximum number of Fock   iterations      0
     Maximum number of DIIS   iterations     60
     Maximum number of QC-SCF iterations     60
     Threshold for SCF convergence     1.00D-05

    INFORMATION: Switched to "new" integral transformation (from 1988 ;-) )
    because more than 255 basis functions.


 ***********************************************
 ***** DIIS acceleration of SCF iterations *****
 ***********************************************

 C1-DIIS algorithm; max error vectors =    8

 Iter      Total energy        Error norm    Delta(E)  DIIS dim.
 -----------------------------------------------------------------------------
   1  Screening settings (-IFTHRS, JTDIIS, DIFDEN, times)   -9    1    T  7.54D+00  7.57D+00
@  1    -1101.48692177        7.43599D+00   -1.10D+03    1
      Virial theorem: -V/T =      2.012099
@    MULPOP   C_a     0.24; C_b     0.33; C_c     0.26; C_d     0.32; C_e     0.25; C_f     0.30; C_g     0.21; C_h     0.32; C_i     0.20; C_j     0.37; 
@             C_k     0.19; C_l     0.33; C_m    -0.18; C_n     0.84; C_o     0.23; C_p     0.38; C_q     0.27; C_r     0.31; C_s     0.27; C_t     0.31; 
@             C_u     0.75; C_v     0.07; N_a    -0.23; N_b     0.98; O_a    -1.15; O_b    -1.16; H_a    -0.24; H_b    -0.24; H_c    -0.24; H_d    -0.24; 
@    MULPOP    dipole moment & components:     31.6034;       21.7268     22.9504      0.0000
   1  Level shift: doubly occupied orbital energies shifted by -2.00D-01
 -----------------------------------------------------------------------------
   2  Screening settings (-IFTHRS, JTDIIS, DIFDEN, times)   -9    2    T  3.00D+00  3.00D+00
@  2    -1105.00095551        2.85727D+00   -3.51D+00    2
      Virial theorem: -V/T =      2.001117
@    MULPOP   C_a     0.64; C_b     0.55; C_c     0.65; C_d     0.57; C_e     0.62; C_f     0.56; C_g     0.67; C_h     0.54; C_i     0.66; C_j     0.59; 
@             C_k     0.78; C_l     0.38; C_m     0.72; C_n     0.66; C_o     0.70; C_p     0.53; C_q     0.69; C_r     0.54; C_s     0.63; C_t     0.57; 
@             C_u     0.69; C_v     0.53; N_a    -0.17; N_b     0.31; O_a    -0.42; O_b    -0.51; H_a    -0.60; H_b    -0.61; H_c    -0.61; H_d    -0.61; 
@    MULPOP    dipole moment & components:     13.0793;        7.9952     10.3512      0.0000
   2  Level shift: doubly occupied orbital energies shifted by -1.00D-01
 -----------------------------------------------------------------------------
   3  Screening settings (-IFTHRS, JTDIIS, DIFDEN, times)   -9    3    T  2.89D+00  2.89D+00
@  3    -1105.46651119        9.65200D-01   -4.66D-01    3
      Virial theorem: -V/T =      2.001250
@    MULPOP   C_a     0.69; C_b     0.55; C_c     0.69; C_d     0.59; C_e     0.65; C_f     0.56; C_g     0.72; C_h     0.55; C_i     0.70; C_j     0.61; 
@             C_k     0.75; C_l     0.39; C_m     0.77; C_n     0.86; C_o     0.72; C_p     0.49; C_q     0.76; C_r     0.58; C_s     0.66; C_t     0.62; 
@             C_u     1.22; C_v     0.60; N_a    -0.30; N_b     0.79; O_a    -0.94; O_b    -0.86; H_a    -0.64; H_b    -0.65; H_c    -0.64; H_d    -0.65; 
@    MULPOP    dipole moment & components:     11.5073;        6.3322      9.6084      0.0000
   3  Level shift: doubly occupied orbital energies shifted by -5.00D-02
 -----------------------------------------------------------------------------
   4  Screening settings (-IFTHRS, JTDIIS, DIFDEN, times)   -9    4    T  2.82D+00  2.82D+00
@  4    -1105.53373982        2.96103D-01   -6.72D-02    4
      Virial theorem: -V/T =      2.002710
@    MULPOP   C_a     0.70; C_b     0.54; C_c     0.71; C_d     0.59; C_e     0.66; C_f     0.55; C_g     0.73; C_h     0.54; C_i     0.72; C_j     0.60; 
@             C_k     0.78; C_l     0.36; C_m     0.78; C_n     0.90; C_o     0.73; C_p     0.49; C_q     0.78; C_r     0.59; C_s     0.67; C_t     0.61; 
@             C_u     1.18; C_v     0.58; N_a    -0.33; N_b     0.57; O_a    -0.81; O_b    -0.82; H_a    -0.64; H_b    -0.65; H_c    -0.65; H_d    -0.65; 
@    MULPOP    dipole moment & components:     10.8917;        5.6991      9.2817      0.0000
   4  Level shift: doubly occupied orbital energies shifted by -2.50D-02
 -----------------------------------------------------------------------------
   5  Screening settings (-IFTHRS, JTDIIS, DIFDEN, times)  -13    5    F  3.54D+00  3.55D+00
@  5    -1105.54777089        1.24928D-01   -1.40D-02    5
      Virial theorem: -V/T =      2.002178
@    MULPOP   C_a     0.70; C_b     0.52; C_c     0.71; C_d     0.57; C_e     0.66; C_f     0.53; C_g     0.73; C_h     0.52; C_i     0.72; C_j     0.58; 
@             C_k     0.80; C_l     0.34; C_m     0.77; C_n     0.87; C_o     0.77; C_p     0.43; C_q     0.81; C_r     0.54; C_s     0.68; C_t     0.58; 
@             C_u     1.23; C_v     0.49; N_a    -0.34; N_b     0.61; O_a    -0.84; O_b    -0.81; H_a    -0.62; H_b    -0.64; H_c    -0.64; H_d    -0.64; 
@    MULPOP    dipole moment & components:     10.0733;        4.8447      8.8318      0.0000
   5  Level shift: doubly occupied orbital energies shifted by -1.25D-02
 -----------------------------------------------------------------------------
   6  Screening settings (-IFTHRS, JTDIIS, DIFDEN, times)  -13    6    T  3.41D+00  3.41D+00
@  6    -1105.55181457        6.60006D-02   -4.04D-03    6
      Virial theorem: -V/T =      2.002045
@    MULPOP   C_a     0.71; C_b     0.51; C_c     0.71; C_d     0.55; C_e     0.67; C_f     0.51; C_g     0.73; C_h     0.52; C_i     0.72; C_j     0.58; 
@             C_k     0.80; C_l     0.34; C_m     0.77; C_n     0.86; C_o     0.80; C_p     0.40; C_q     0.83; C_r     0.52; C_s     0.69; C_t     0.56; 
@             C_u     1.24; C_v     0.47; N_a    -0.34; N_b     0.58; O_a    -0.82; O_b    -0.81; H_a    -0.62; H_b    -0.64; H_c    -0.63; H_d    -0.63; 
@    MULPOP    dipole moment & components:      9.6096;        4.3189      8.5844      0.0000
   6  Level shift: doubly occupied orbital energies shifted by -1.25D-02
 -----------------------------------------------------------------------------
   7  Screening settings (-IFTHRS, JTDIIS, DIFDEN, times)  -13    7    T  3.34D+00  3.35D+00
@  7    -1105.55325918        3.08126D-02   -1.44D-03    7
      Virial theorem: -V/T =      2.002064
@    MULPOP   C_a     0.71; C_b     0.50; C_c     0.71; C_d     0.54; C_e     0.68; C_f     0.51; C_g     0.73; C_h     0.51; C_i     0.72; C_j     0.58; 
@             C_k     0.80; C_l     0.33; C_m     0.76; C_n     0.86; C_o     0.82; C_p     0.38; C_q     0.84; C_r     0.51; C_s     0.70; C_t     0.56; 
@             C_u     1.25; C_v     0.44; N_a    -0.35; N_b     0.57; O_a    -0.83; O_b    -0.80; H_a    -0.62; H_b    -0.63; H_c    -0.63; H_d    -0.63; 
@    MULPOP    dipole moment & components:      9.3237;        4.0497      8.3983      0.0000
 -----------------------------------------------------------------------------
   8  Screening settings (-IFTHRS, JTDIIS, DIFDEN, times)  -13    8    T  3.32D+00  3.32D+00
@  8    -1105.55356939        1.37205D-02   -3.10D-04    8
      Virial theorem: -V/T =      2.002063
@    MULPOP   C_a     0.71; C_b     0.50; C_c     0.71; C_d     0.54; C_e     0.68; C_f     0.51; C_g     0.73; C_h     0.52; C_i     0.72; C_j     0.58; 
@             C_k     0.79; C_l     0.34; C_m     0.76; C_n     0.87; C_o     0.83; C_p     0.37; C_q     0.85; C_r     0.50; C_s     0.71; C_t     0.55; 
@             C_u     1.26; C_v     0.43; N_a    -0.35; N_b     0.58; O_a    -0.82; O_b    -0.80; H_a    -0.62; H_b    -0.63; H_c    -0.63; H_d    -0.63; 
@    MULPOP    dipole moment & components:      9.1103;        3.8595      8.2524      0.0000
 -----------------------------------------------------------------------------
   9  Screening settings (-IFTHRS, JTDIIS, DIFDEN, times)  -13    9    T  3.27D+00  3.27D+00
@  9    -1105.55361905        5.55537D-03   -4.97D-05    8
      Virial theorem: -V/T =      2.002055
@    MULPOP   C_a     0.71; C_b     0.51; C_c     0.71; C_d     0.55; C_e     0.67; C_f     0.52; C_g     0.72; C_h     0.52; C_i     0.71; C_j     0.58; 
@             C_k     0.79; C_l     0.34; C_m     0.75; C_n     0.87; C_o     0.83; C_p     0.37; C_q     0.85; C_r     0.50; C_s     0.71; C_t     0.56; 
@             C_u     1.26; C_v     0.43; N_a    -0.35; N_b     0.57; O_a    -0.82; O_b    -0.80; H_a    -0.62; H_b    -0.64; H_c    -0.63; H_d    -0.63; 
@    MULPOP    dipole moment & components:      9.0058;        3.8127      8.1589      0.0000
 -----------------------------------------------------------------------------
  10  Screening settings (-IFTHRS, JTDIIS, DIFDEN, times)  -13   10    T  3.23D+00  3.23D+00
@ 10    -1105.55363224        3.37941D-03   -1.32D-05    8
      Virial theorem: -V/T =      2.002054
@    MULPOP   C_a     0.71; C_b     0.51; C_c     0.71; C_d     0.55; C_e     0.67; C_f     0.52; C_g     0.72; C_h     0.53; C_i     0.71; C_j     0.59; 
@             C_k     0.79; C_l     0.35; C_m     0.75; C_n     0.87; C_o     0.83; C_p     0.37; C_q     0.85; C_r     0.50; C_s     0.70; C_t     0.56; 
@             C_u     1.26; C_v     0.43; N_a    -0.35; N_b     0.57; O_a    -0.82; O_b    -0.80; H_a    -0.62; H_b    -0.64; H_c    -0.63; H_d    -0.63; 
@    MULPOP    dipole moment & components:      8.9324;        3.7862      8.0903      0.0000
 -----------------------------------------------------------------------------
  11  Screening settings (-IFTHRS, JTDIIS, DIFDEN, times)  -13   11    T  3.15D+00  3.27D+00
@ 11    -1105.55363823        2.01497D-03   -6.00D-06    8
      Virial theorem: -V/T =      2.002055
@    MULPOP   C_a     0.70; C_b     0.51; C_c     0.70; C_d     0.55; C_e     0.67; C_f     0.52; C_g     0.72; C_h     0.53; C_i     0.70; C_j     0.59; 
@             C_k     0.78; C_l     0.35; C_m     0.75; C_n     0.87; C_o     0.83; C_p     0.37; C_q     0.85; C_r     0.51; C_s     0.70; C_t     0.56; 
@             C_u     1.26; C_v     0.43; N_a    -0.35; N_b     0.57; O_a    -0.82; O_b    -0.80; H_a    -0.62; H_b    -0.64; H_c    -0.63; H_d    -0.63; 
@    MULPOP    dipole moment & components:      8.8693;        3.7652      8.0305      0.0000
 -----------------------------------------------------------------------------
  12  Screening settings (-IFTHRS, JTDIIS, DIFDEN, times)  -13   12    T  3.13D+00  3.13D+00
@ 12    -1105.55364060        7.26695D-04   -2.37D-06    8
      Virial theorem: -V/T =      2.002054
@    MULPOP   C_a     0.70; C_b     0.51; C_c     0.70; C_d     0.56; C_e     0.66; C_f     0.53; C_g     0.71; C_h     0.53; C_i     0.70; C_j     0.59; 
@             C_k     0.78; C_l     0.35; C_m     0.75; C_n     0.87; C_o     0.83; C_p     0.38; C_q     0.85; C_r     0.51; C_s     0.70; C_t     0.56; 
@             C_u     1.26; C_v     0.43; N_a    -0.35; N_b     0.57; O_a    -0.82; O_b    -0.80; H_a    -0.62; H_b    -0.64; H_c    -0.63; H_d    -0.63; 
@    MULPOP    dipole moment & components:      8.8172;        3.7488      7.9806      0.0000
 -----------------------------------------------------------------------------
  13  Screening settings (-IFTHRS, JTDIIS, DIFDEN, times)  -13   13    T  3.12D+00  3.12D+00
@ 13    -1105.55364086        3.28075D-04   -2.61D-07    8
      Virial theorem: -V/T =      2.002054
@    MULPOP   C_a     0.70; C_b     0.52; C_c     0.70; C_d     0.56; C_e     0.66; C_f     0.53; C_g     0.71; C_h     0.53; C_i     0.70; C_j     0.59; 
@             C_k     0.78; C_l     0.35; C_m     0.75; C_n     0.87; C_o     0.83; C_p     0.38; C_q     0.85; C_r     0.51; C_s     0.70; C_t     0.56; 
@             C_u     1.26; C_v     0.43; N_a    -0.35; N_b     0.57; O_a    -0.82; O_b    -0.80; H_a    -0.62; H_b    -0.64; H_c    -0.63; H_d    -0.63; 
@    MULPOP    dipole moment & components:      8.7998;        3.7430      7.9641      0.0000
 -----------------------------------------------------------------------------
  14  Screening settings (-IFTHRS, JTDIIS, DIFDEN, times)  -13   14    T  2.95D+00  2.96D+00
@ 14    -1105.55364089        1.51738D-04   -2.72D-08    8
      Virial theorem: -V/T =      2.002054
@    MULPOP   C_a     0.70; C_b     0.52; C_c     0.70; C_d     0.56; C_e     0.66; C_f     0.53; C_g     0.71; C_h     0.53; C_i     0.70; C_j     0.59; 
@             C_k     0.78; C_l     0.35; C_m     0.75; C_n     0.87; C_o     0.83; C_p     0.38; C_q     0.85; C_r     0.51; C_s     0.70; C_t     0.56; 
@             C_u     1.26; C_v     0.43; N_a    -0.35; N_b     0.57; O_a    -0.82; O_b    -0.80; H_a    -0.62; H_b    -0.64; H_c    -0.63; H_d    -0.63; 
@    MULPOP    dipole moment & components:      8.7960;        3.7418      7.9604      0.0000
 -----------------------------------------------------------------------------
  15  Screening settings (-IFTHRS, JTDIIS, DIFDEN, times)  -13   15    T  2.89D+00  2.89D+00
@ 15    -1105.55364089        6.95453D-05   -5.76D-09    8
      Virial theorem: -V/T =      2.002054
@    MULPOP   C_a     0.70; C_b     0.52; C_c     0.70; C_d     0.56; C_e     0.66; C_f     0.53; C_g     0.71; C_h     0.53; C_i     0.70; C_j     0.59; 
@             C_k     0.78; C_l     0.35; C_m     0.75; C_n     0.87; C_o     0.83; C_p     0.38; C_q     0.85; C_r     0.51; C_s     0.70; C_t     0.56; 
@             C_u     1.26; C_v     0.43; N_a    -0.35; N_b     0.57; O_a    -0.82; O_b    -0.80; H_a    -0.62; H_b    -0.64; H_c    -0.63; H_d    -0.63; 
@    MULPOP    dipole moment & components:      8.7944;        3.7413      7.9588      0.0000
 -----------------------------------------------------------------------------
  16  Screening settings (-IFTHRS, JTDIIS, DIFDEN, times)  -13   16    T  2.84D+00  2.84D+00
@ 16    -1105.55364089        3.01497D-05   -7.85D-10    8
      Virial theorem: -V/T =      2.002054
@    MULPOP   C_a     0.70; C_b     0.52; C_c     0.70; C_d     0.56; C_e     0.66; C_f     0.53; C_g     0.71; C_h     0.53; C_i     0.70; C_j     0.59; 
@             C_k     0.78; C_l     0.35; C_m     0.75; C_n     0.87; C_o     0.83; C_p     0.38; C_q     0.85; C_r     0.51; C_s     0.70; C_t     0.56; 
@             C_u     1.26; C_v     0.43; N_a    -0.35; N_b     0.57; O_a    -0.82; O_b    -0.80; H_a    -0.62; H_b    -0.64; H_c    -0.63; H_d    -0.63; 
@    MULPOP    dipole moment & components:      8.7941;        3.7413      7.9585      0.0000
 -----------------------------------------------------------------------------
  17  Screening settings (-IFTHRS, JTDIIS, DIFDEN, times)  -13   17    T  2.83D+00  2.83D+00
@ 17    -1105.55364089        2.00843D-05   -2.55D-10    8
      Virial theorem: -V/T =      2.002054
@    MULPOP   C_a     0.70; C_b     0.52; C_c     0.70; C_d     0.56; C_e     0.66; C_f     0.53; C_g     0.71; C_h     0.53; C_i     0.70; C_j     0.59; 
@             C_k     0.78; C_l     0.35; C_m     0.75; C_n     0.87; C_o     0.83; C_p     0.38; C_q     0.85; C_r     0.51; C_s     0.70; C_t     0.56; 
@             C_u     1.26; C_v     0.43; N_a    -0.35; N_b     0.57; O_a    -0.82; O_b    -0.80; H_a    -0.62; H_b    -0.64; H_c    -0.63; H_d    -0.63; 
@    MULPOP    dipole moment & components:      8.7939;        3.7413      7.9584      0.0000
 -----------------------------------------------------------------------------
  18  Screening settings (-IFTHRS, JTDIIS, DIFDEN, times)  -13   18    T  2.82D+00  2.82D+00
@ 18    -1105.55364089        8.54343D-06   -1.22D-10    8

@ *** DIIS converged in  18 iterations !
@     Converged SCF energy, gradient:  -1105.553640894570    8.54D-06
    - total time used in SIRFCK :              0.00 seconds


 *** SCF orbital energy analysis ***

 Only the 20 lowest virtual orbital energies printed in each symmetry.

 Number of electrons :  186
 Orbital occupations :   93

 Sym       Hartree-Fock orbital energies

1 A     -20.59738914   -20.59455782   -15.84483881   -15.60045346   -11.30925494
        -11.29549010   -11.29392487   -11.28425873   -11.27611802   -11.27015705
        -11.26548603   -11.26526668   -11.26165304   -11.26079765   -11.25864099
        -11.25841028   -11.25787957   -11.25572743   -11.25488785   -11.25421917
        -11.25180912   -11.24849648   -11.24474898   -11.24032976   -11.23538112
        -11.23291021    -1.58359537    -1.38127716    -1.24023650    -1.14610678
         -1.13099683    -1.12108948    -1.11121224    -1.09853084    -1.08245397
         -1.06323991    -1.04113380    -1.01633616    -0.98906843    -0.95985979
         -0.93847304    -0.89029932    -0.85876249    -0.82871093    -0.80413201
         -0.78854667    -0.78390921    -0.77505319    -0.76897600    -0.76514759
         -0.75446306    -0.75219614    -0.73610398    -0.71856924    -0.71350534
         -0.69618892    -0.68213821    -0.67308067    -0.66940377    -0.65315663
         -0.64336483    -0.63262533    -0.61822586    -0.60602862    -0.60057085
         -0.58106874    -0.57674385    -0.56510767    -0.55208286    -0.55116730
         -0.54004385    -0.53227059    -0.53071575    -0.52424732    -0.52319346
         -0.51697147    -0.51115319    -0.50557764    -0.49865228    -0.49833173
         -0.48570464    -0.48082908    -0.47753480    -0.47294066    -0.45599508
         -0.43934718    -0.43420257    -0.40789335    -0.37711578    -0.34224365
         -0.30406315    -0.26442409    -0.22689701     0.00493011     0.02101430
          0.02798455     0.03022293     0.03243235     0.03545848     0.03667713
          0.04078543     0.04148890     0.04506531     0.04914169     0.05495364
          0.05952300     0.06612760     0.07189299     0.07827193     0.07856028
          0.08626257     0.09027410     0.09312576

    E(LUMO) :     0.00493011 au (symmetry 1)
  - E(HOMO) :    -0.22689701 au (symmetry 1)
  ------------------------------------------
    gap     :     0.23182713 au

 --- Writing SIRIFC interface file

 CPU and wall time for SCF :     143.196     143.509


                       .-----------------------------------.
                       | --- Final results from SIRIUS --- |
                       `-----------------------------------'


@    Spin multiplicity:           1
@    Spatial symmetry:            1 ( irrep  A   in C1  )
@    Total charge of molecule:    0

@    Final HF energy:           -1105.553640894570                 
@    Nuclear repulsion:          1581.530184833914
@    Electronic energy:         -2687.083825728483

@    Final gradient norm:           0.000008543432

 
     Date and time (Linux)  : Tue May 27 12:50:35 2025
     Host name              : xm059                                   

File label for MO orbitals:  27May25   FOCKDIIS

 (Only coefficients > 0.0100 are printed.)

 Molecular orbitals for symmetry species 1  (A  )
 ------------------------------------------------

    Orbital        84       85       86       87       88       89       90
   7 C_a :2pz    0.2243  -0.0659  -0.0242  -0.1771   0.2095   0.0338   0.2365
  10 C_a :2pz   -0.0132   0.0078  -0.0003   0.0012  -0.0070   0.0081   0.0048
  13 C_a :2pz    0.0051  -0.0026   0.0004  -0.0038   0.0071   0.0023   0.0189
  17 C_a :3d1+   0.0069   0.0038  -0.0010  -0.0110   0.0031   0.0108   0.0105
  30 C_b :2pz    0.1940   0.0394  -0.0242  -0.2287   0.1014   0.1735   0.1941
  33 C_b :2pz   -0.0104  -0.0074   0.0014   0.0101   0.0047  -0.0067   0.0066
  36 C_b :2pz    0.0043   0.0007  -0.0007  -0.0060   0.0035   0.0113   0.0150
  40 C_b :3d1+  -0.0092   0.0052   0.0010   0.0064  -0.0119   0.0006  -0.0136
  53 C_c :2pz    0.1118   0.1781  -0.0125  -0.1834  -0.1303   0.2104  -0.1028
  56 C_c :2pz   -0.0092  -0.0051   0.0010   0.0101  -0.0043  -0.0047  -0.0083
  59 C_c :2pz    0.0009   0.0046  -0.0011  -0.0065  -0.0040   0.0100  -0.0076
  63 C_c :3d1+  -0.0003   0.0103   0.0003  -0.0015  -0.0118   0.0027  -0.0132
  76 C_d :2pz    0.0368   0.2277   0.0002  -0.0792  -0.2194   0.0856  -0.2153
  79 C_d :2pz    0.0010  -0.0136  -0.0009  -0.0030   0.0085   0.0074   0.0007
  82 C_d :2pz    0.0007   0.0050   0.0004  -0.0022  -0.0095   0.0034  -0.0168
  86 C_d :3d1+  -0.0061  -0.0058   0.0008   0.0101   0.0042  -0.0127   0.0041
  99 C_e :2pz   -0.0774   0.2266   0.0185   0.1113  -0.1924  -0.1772  -0.1237
 102 C_e :2pz    0.0017  -0.0127  -0.0001   0.0017   0.0085  -0.0049   0.0053
 105 C_e :2pz   -0.0005   0.0048   0.0008   0.0042  -0.0070  -0.0071  -0.0103
 109 C_e :3d1+  -0.0072   0.0056   0.0012   0.0105  -0.0013  -0.0128   0.0045
 122 C_f :2pz   -0.1467   0.1701   0.0248   0.2017  -0.0714  -0.2348   0.0476
 125 C_f :2pz    0.0128  -0.0062  -0.0013  -0.0121  -0.0061   0.0024  -0.0073
 128 C_f :2pz   -0.0033   0.0039   0.0003   0.0055  -0.0018  -0.0130   0.0048
 130 C_f :3d1-  -0.0070  -0.0009   0.0006   0.0073   0.0075  -0.0021   0.0106
 132 C_f :3d1+   0.0009  -0.0102  -0.0006  -0.0025   0.0113   0.0078   0.0093
 145 C_g :2pz   -0.2251   0.0391   0.0232   0.2362   0.1533  -0.1020   0.2426
 148 C_g :2pz    0.0127  -0.0060  -0.0012  -0.0097   0.0032   0.0087   0.0018
 151 C_g :2pz   -0.0044   0.0003   0.0005   0.0051   0.0040  -0.0077   0.0192
 155 C_g :3d1+  -0.0101  -0.0047   0.0004   0.0062   0.0120   0.0054   0.0084
 168 C_h :2pz   -0.2531  -0.0613   0.0143   0.1745   0.2300   0.0600   0.1668
 171 C_h :2pz    0.0184   0.0077  -0.0001  -0.0036  -0.0089  -0.0093   0.0072
 174 C_h :2pz   -0.0037  -0.0010   0.0007   0.0060   0.0095   0.0057   0.0103
 176 C_h :3d1-  -0.0069  -0.0070  -0.0004  -0.0021   0.0053   0.0100  -0.0074
 178 C_h :3d1+   0.0072  -0.0042  -0.0012  -0.0113  -0.0052   0.0081  -0.0143
 191 C_i :2pz   -0.2641  -0.1899  -0.0043   0.0066   0.1886   0.2423  -0.1359
 194 C_i :2pz    0.0172   0.0069  -0.0004  -0.0064  -0.0094  -0.0006  -0.0078
 197 C_i :2pz   -0.0042  -0.0032  -0.0001   0.0015   0.0088   0.0139  -0.0107
 201 C_i :3d1+  -0.0085  -0.0105  -0.0009  -0.0073   0.0007   0.0097  -0.0137
 214 C_j :2pz   -0.2444  -0.2390  -0.0159  -0.1128   0.0638   0.2031  -0.2268
 217 C_j :2pz    0.0178   0.0169   0.0014   0.0116   0.0065   0.0027  -0.0001
 220 C_j :2pz   -0.0055  -0.0066  -0.0007  -0.0056  -0.0006   0.0067  -0.0136
 224 C_j :3d1+   0.0097   0.0056  -0.0001  -0.0034  -0.0113  -0.0127   0.0058
 237 C_k :2pz   -0.1938  -0.2526  -0.0266  -0.2377  -0.1583  -0.0316  -0.1057
 240 C_k :2pz    0.0116   0.0111   0.0007   0.0043  -0.0047  -0.0103   0.0081
 247 C_k :3d1+  -0.0037  -0.0071  -0.0010  -0.0103  -0.0121  -0.0109   0.0060
 260 C_l :2pz   -0.1382  -0.2070  -0.0254  -0.2396  -0.2303  -0.1716   0.0702
 263 C_l :2pz    0.0118   0.0144   0.0015   0.0139   0.0123   0.0106  -0.0092
 268 C_l :3d1-   0.0003  -0.0007  -0.0002  -0.0026  -0.0052  -0.0080   0.0104
 270 C_l :3d1+   0.0085   0.0107   0.0011   0.0095   0.0050  -0.0018   0.0093
 283 C_m :2pz   -0.0446  -0.0908  -0.0140  -0.1404  -0.1888  -0.2277   0.2515
 286 C_m :2pz    0.0062   0.0093   0.0011   0.0106   0.0092   0.0047   0.0021
 289 C_m :2pz   -0.0018  -0.0032  -0.0006  -0.0056  -0.0091  -0.0145   0.0219
 306 C_n :2pz    0.0307   0.0204   0.0001  -0.0054  -0.0410  -0.0828   0.1269
 312 C_n :2pz   -0.0019  -0.0037  -0.0006  -0.0058  -0.0085  -0.0119   0.0172
 314 C_n :3d1-   0.0051   0.0071   0.0009   0.0085   0.0096   0.0103  -0.0108
 316 C_n :3d1+   0.0045   0.0076   0.0011   0.0106   0.0135   0.0160  -0.0176
 321 C_n :3d1+   0.0013   0.0031   0.0005   0.0054   0.0078   0.0098  -0.0111
 329 C_o :2pz   -0.1937   0.1618   0.0055  -0.0937  -0.0054   0.1146   0.2083
 332 C_o :2pz    0.0087  -0.0074  -0.0159   0.0084  -0.0064   0.0064   0.0075
 335 C_o :2pz    0.0008  -0.0009  -0.0009   0.0020  -0.0042   0.0098   0.0198
 339 C_o :3d1+  -0.0052   0.0016   0.0009   0.0033  -0.0085   0.0122   0.0131
 352 C_p :2pz   -0.1440   0.0698   0.0147   0.0323  -0.1371   0.2079   0.2215
 358 C_p :2pz   -0.0062   0.0054  -0.0024  -0.0026  -0.0021   0.0087   0.0154
 362 C_p :3d1+   0.0089  -0.0089   0.0001   0.0069  -0.0023  -0.0044  -0.0114
 375 C_q :2pz   -0.0286  -0.0980   0.0244   0.2029  -0.2286   0.1414  -0.0291
 385 C_q :3d1+   0.0040  -0.0092   0.0007   0.0106  -0.0063  -0.0023  -0.0108
 398 C_r :2pz    0.0570  -0.1794   0.0202   0.2240  -0.1497  -0.0137  -0.1706
 401 C_r :2pz   -0.0076   0.0124  -0.0046  -0.0072  -0.0030   0.0085   0.0030
 404 C_r :2pz    0.0041  -0.0076   0.0022   0.0103  -0.0089   0.0013  -0.0122
 406 C_r :3d1-   0.0063  -0.0071  -0.0001   0.0023   0.0057  -0.0104  -0.0066
 408 C_r :3d1+   0.0033   0.0021  -0.0012  -0.0084   0.0123  -0.0098  -0.0002
 421 C_s :2pz    0.1677  -0.2275   0.0023   0.1267   0.0832  -0.2307  -0.1719
 427 C_s :2pz    0.0028  -0.0047  -0.0009   0.0034   0.0037  -0.0130  -0.0141
 431 C_s :3d1+   0.0092  -0.0072  -0.0007  -0.0019   0.0110  -0.0105   0.0006
 444 C_t :2pz    0.2102  -0.1903  -0.0108   0.0040   0.1940  -0.2054  -0.0140
 447 C_t :2pz   -0.0145   0.0069   0.0015   0.0065  -0.0084  -0.0029  -0.0082
 450 C_t :2pz    0.0024  -0.0029  -0.0011  -0.0021   0.0097  -0.0131  -0.0014
 452 C_t :3d1-   0.0061   0.0002  -0.0009  -0.0078   0.0069   0.0037   0.0110
 454 C_t :3d1+  -0.0053   0.0101  -0.0004  -0.0082  -0.0018   0.0122   0.0117
 467 C_u :2pz   -0.1517   0.1841  -0.0021  -0.2150   0.2387  -0.2526  -0.2511
 470 C_u :2pz    0.0041  -0.0033  -0.0101   0.0034  -0.0009  -0.0016  -0.0049
 473 C_u :2pz   -0.0103   0.0124  -0.0046  -0.0142   0.0171  -0.0205  -0.0246
 477 C_u :3d1+  -0.0094   0.0106  -0.0033  -0.0107   0.0105  -0.0093  -0.0071
 482 C_u :3d1+  -0.0053   0.0069  -0.0301  -0.0037   0.0060  -0.0055  -0.0044
 490 C_v :2pz   -0.1869   0.2066  -0.0121  -0.2108   0.1981  -0.1674  -0.1221
 493 C_v :2pz    0.0156  -0.0146   0.0345   0.0064  -0.0039  -0.0009  -0.0038
 498 C_v :3d1-  -0.0053   0.0038   0.0005  -0.0010  -0.0029   0.0073   0.0111
 500 C_v :3d1+   0.0055  -0.0076  -0.0001   0.0100  -0.0125   0.0146   0.0158
 503 C_v :3d1-   0.0002  -0.0003   0.0106  -0.0006  -0.0016   0.0041   0.0070
 513 N_a :2pz    0.1202   0.1599   0.0191   0.1811   0.1955   0.2039  -0.2078
 516 N_a :2pz    0.0093   0.0129   0.0016   0.0155   0.0180   0.0204  -0.0228
 519 N_a :2pz    0.0124   0.0181   0.0024   0.0230   0.0282   0.0340  -0.0410
 536 N_b :2pz    0.0232  -0.0233   0.0086   0.0194  -0.0142   0.0058  -0.0042
 542 N_b :2pz    0.0114  -0.0122   0.0008   0.0122  -0.0110   0.0089   0.0063
 544 N_b :3d1-  -0.0054   0.0064   0.0158  -0.0095   0.0092  -0.0097  -0.0098
 546 N_b :3d1+  -0.0026   0.0039  -0.0545   0.0027   0.0021  -0.0028  -0.0030
 549 N_b :3d1-  -0.0050   0.0063  -0.0004  -0.0078   0.0091  -0.0102  -0.0106
 559 O_a :2pz    0.0590  -0.0788   0.6436   0.0061  -0.0657   0.0756   0.0783
 562 O_a :2pz    0.0035  -0.0049   0.0501  -0.0008  -0.0040   0.0052   0.0059
 565 O_a :2pz    0.0014  -0.0033   0.0648  -0.0036  -0.0037   0.0066   0.0093
 569 O_a :3d1+   0.0017  -0.0022   0.0136   0.0006  -0.0017   0.0017   0.0016
 574 O_a :3d1+   0.0025  -0.0032   0.0284  -0.0002  -0.0022   0.0023   0.0023
 582 O_b :2pz    0.0415  -0.0402  -0.6402   0.1295  -0.0826   0.0806   0.0783
 585 O_b :2pz    0.0013  -0.0012  -0.0504   0.0085  -0.0053   0.0059   0.0066
 588 O_b :2pz   -0.0011   0.0014  -0.0656   0.0081  -0.0043   0.0059   0.0080
 595 O_b :3d1-   0.0015  -0.0014  -0.0228   0.0046  -0.0029   0.0028   0.0027
 597 O_b :3d1+  -0.0003   0.0001   0.0175  -0.0024   0.0010  -0.0009  -0.0008

    Orbital        91       92       93       94       95       96       97
   2 C_a :1s    -0.0000  -0.0000  -0.0000  -0.0000  -0.0028  -0.0335  -0.0208
   3 C_a :1s     0.0000  -0.0000   0.0000  -0.0000   0.0077   0.2009   0.1818
   4 C_a :1s     0.0000  -0.0000   0.0000  -0.0000   0.3452  10.9635   7.9867
   5 C_a :2px    0.0000   0.0000  -0.0000  -0.0000   0.0017   0.0166   0.0081
   6 C_a :2py   -0.0000   0.0000  -0.0000  -0.0000  -0.0021  -0.0176  -0.0083
   7 C_a :2pz    0.1035   0.1969   0.2146   0.1510  -0.0000   0.0000  -0.0000
   8 C_a :2px    0.0000   0.0000  -0.0000  -0.0000   0.0128  -0.0970  -0.0530
   9 C_a :2py   -0.0000   0.0000  -0.0000  -0.0000   0.1140  -0.0319  -0.1056
  10 C_a :2pz   -0.0022   0.0132   0.0137   0.0157  -0.0000   0.0000  -0.0000
  11 C_a :2px    0.0000  -0.0000  -0.0000  -0.0000   1.8558   2.4682  -0.0883
  12 C_a :2py    0.0000  -0.0000  -0.0000  -0.0000   1.7782  -0.4299  -1.8286
  13 C_a :2pz    0.0098   0.0452   0.0549   0.1152  -0.0000   0.0000  -0.0000
  15 C_a :3d1-  -0.0083   0.0098   0.0035  -0.0151  -0.0000   0.0000  -0.0000
  17 C_a :3d1+  -0.0052   0.0154   0.0086  -0.0150   0.0000  -0.0000   0.0000
  19 C_a :3d2-  -0.0000  -0.0000   0.0000   0.0000   0.0490  -0.0474  -0.0931
  20 C_a :3d1-  -0.0020   0.0090   0.0065  -0.0117   0.0000  -0.0000   0.0000
  21 C_a :3d0    0.0000  -0.0000   0.0000   0.0000  -0.0084  -0.0332  -0.0239
  22 C_a :3d1+  -0.0052   0.0086   0.0038  -0.0192  -0.0000   0.0000  -0.0000
  23 C_a :3d2+  -0.0000   0.0000  -0.0000  -0.0000   0.0310  -0.0286  -0.0371
  25 C_b :1s     0.0000   0.0000   0.0000   0.0000  -0.0018   0.0383   0.0248
  26 C_b :1s    -0.0000   0.0000  -0.0000  -0.0000  -0.0247  -0.1486  -0.0565
  27 C_b :1s    -0.0000   0.0000   0.0000   0.0000   0.4414 -11.0753  -7.0872
  28 C_b :2px    0.0000   0.0000   0.0000   0.0000  -0.0015   0.0237   0.0171
  29 C_b :2py   -0.0000  -0.0000   0.0000   0.0000   0.0013  -0.0257  -0.0176
  30 C_b :2pz   -0.0669   0.2322   0.1223  -0.2384   0.0000  -0.0000   0.0000
  31 C_b :2px   -0.0000   0.0000  -0.0000  -0.0000   0.1188  -0.1346  -0.1640
  32 C_b :2py   -0.0000   0.0000  -0.0000  -0.0000  -0.0106  -0.0023   0.0309
  33 C_b :2pz    0.0042   0.0111   0.0112  -0.0287   0.0000  -0.0000   0.0000
  34 C_b :2px    0.0000   0.0000  -0.0000  -0.0000   2.0079   2.5117   0.2017
  35 C_b :2py   -0.0000   0.0000  -0.0000   0.0000   1.9151  -0.7223  -1.5650
  36 C_b :2pz   -0.0041   0.0376   0.0401  -0.1834   0.0000  -0.0000   0.0000
  38 C_b :3d1-  -0.0100  -0.0056  -0.0118  -0.0092  -0.0000   0.0000   0.0000
  40 C_b :3d1+  -0.0080  -0.0125  -0.0151  -0.0083   0.0000  -0.0000   0.0000
  42 C_b :3d2-   0.0000   0.0000  -0.0000   0.0000   0.0431  -0.0241  -0.0703
  43 C_b :3d1-  -0.0042  -0.0083  -0.0110  -0.0042  -0.0000  -0.0000  -0.0000
  44 C_b :3d0   -0.0000  -0.0000  -0.0000  -0.0000  -0.0070   0.0324   0.0260
  45 C_b :3d1+  -0.0074  -0.0066  -0.0111  -0.0136  -0.0000   0.0000  -0.0000
  46 C_b :3d2+   0.0000  -0.0000  -0.0000   0.0000  -0.0245   0.0240   0.0268
  48 C_c :1s    -0.0000   0.0000  -0.0000   0.0000  -0.0031  -0.0317  -0.0114
  49 C_c :1s    -0.0000  -0.0000   0.0000  -0.0000   0.0248   0.1944   0.1140
  50 C_c :1s     0.0000  -0.0000  -0.0000  -0.0000   0.3786  10.5695   4.7481
  51 C_c :2px   -0.0000   0.0000  -0.0000  -0.0000   0.0013   0.0149   0.0041
  52 C_c :2py   -0.0000   0.0000  -0.0000  -0.0000  -0.0017  -0.0159  -0.0035
  53 C_c :2pz   -0.2214  -0.1055  -0.2430  -0.1221  -0.0000   0.0000  -0.0000
  54 C_c :2px   -0.0000   0.0000  -0.0000  -0.0000   0.0370  -0.1098  -0.0555
  55 C_c :2py   -0.0000   0.0000  -0.0000  -0.0000   0.1085  -0.0576  -0.1056
  56 C_c :2pz   -0.0043  -0.0097  -0.0158  -0.0119  -0.0000   0.0000  -0.0000
  57 C_c :2px   -0.0000  -0.0000  -0.0000   0.0000   2.3506   1.7285  -0.3856
  58 C_c :2py    0.0000  -0.0000   0.0000   0.0000   1.9960  -1.0110  -1.2005
  59 C_c :2pz   -0.0257  -0.0293  -0.0635  -0.0860  -0.0000   0.0000  -0.0000
  61 C_c :3d1-   0.0025  -0.0107  -0.0052   0.0139  -0.0000   0.0000  -0.0000
  63 C_c :3d1+  -0.0047  -0.0139  -0.0112   0.0139   0.0000  -0.0000  -0.0000
  65 C_c :3d2-   0.0000   0.0000   0.0000   0.0000   0.0455  -0.0579  -0.0755
  66 C_c :3d1-  -0.0024  -0.0076  -0.0082   0.0111   0.0000  -0.0000   0.0000
  67 C_c :3d0    0.0000   0.0000   0.0000   0.0000  -0.0088  -0.0322  -0.0140
  68 C_c :3d1+  -0.0000  -0.0086  -0.0054   0.0174  -0.0000   0.0000   0.0000
  69 C_c :3d2+  -0.0000   0.0000  -0.0000  -0.0000   0.0298  -0.0363  -0.0477
  71 C_d :1s     0.0000  -0.0000  -0.0000  -0.0000  -0.0022   0.0349   0.0130
  72 C_d :1s    -0.0000  -0.0000   0.0000   0.0000   0.0262  -0.1270  -0.0178
  73 C_d :1s     0.0000   0.0000   0.0000   0.0000   0.3642 -10.3745  -3.4827
  74 C_d :2px    0.0000   0.0000   0.0000   0.0000  -0.0006   0.0220   0.0088
  75 C_d :2py    0.0000  -0.0000   0.0000   0.0000   0.0003  -0.0238  -0.0084
  76 C_d :2pz   -0.0917  -0.2063  -0.1594   0.2156   0.0000  -0.0000   0.0000
  77 C_d :2px   -0.0000   0.0000  -0.0000  -0.0000   0.1352  -0.1589  -0.1399
  78 C_d :2py   -0.0000  -0.0000  -0.0000  -0.0000   0.0733   0.0025  -0.0475
  79 C_d :2pz   -0.0085  -0.0075  -0.0134   0.0260   0.0000  -0.0000  -0.0000
  80 C_d :2px   -0.0000   0.0000  -0.0000   0.0000   2.1646   2.6141  -0.9112
  81 C_d :2py   -0.0000   0.0000  -0.0000  -0.0000   2.3655  -0.3437  -1.9402
  82 C_d :2pz   -0.0128  -0.0280  -0.0479   0.1691   0.0000  -0.0000   0.0000
  84 C_d :3d1-   0.0112   0.0000   0.0126   0.0073  -0.0000   0.0000   0.0000
  86 C_d :3d1+   0.0146   0.0061   0.0171   0.0065   0.0000  -0.0000   0.0000
  88 C_d :3d2-  -0.0000   0.0000   0.0000  -0.0000   0.0560  -0.0274  -0.0631
  89 C_d :3d1-   0.0074   0.0041   0.0124   0.0026   0.0000  -0.0000  -0.0000
  90 C_d :3d0   -0.0000  -0.0000   0.0000   0.0000  -0.0073   0.0293   0.0171
  91 C_d :3d1+   0.0098   0.0019   0.0121   0.0110  -0.0000   0.0000  -0.0000
  92 C_d :3d2+  -0.0000   0.0000  -0.0000   0.0000  -0.0417   0.0341   0.0362
  94 C_e :1s    -0.0000   0.0000   0.0000   0.0000  -0.0028  -0.0286  -0.0013
  95 C_e :1s     0.0000  -0.0000   0.0000  -0.0000   0.0746   0.1815   0.0550
  96 C_e :1s    -0.0000  -0.0000   0.0000  -0.0000   0.5976   9.8895   0.3738
  97 C_e :2px   -0.0000   0.0000  -0.0000  -0.0000   0.0009   0.0129  -0.0007
  98 C_e :2py   -0.0000   0.0000  -0.0000  -0.0000  -0.0013  -0.0139   0.0018
  99 C_e :2pz    0.2312  -0.0108   0.2614   0.0926  -0.0000   0.0000  -0.0000
 100 C_e :2px   -0.0000  -0.0000   0.0000  -0.0000   0.1325  -0.1106  -0.0652
 101 C_e :2py   -0.0000  -0.0000   0.0000  -0.0000   0.1842  -0.0652  -0.1348
 102 C_e :2pz    0.0086   0.0045   0.0174   0.0082  -0.0000   0.0000   0.0000
 103 C_e :2px    0.0000  -0.0000   0.0000  -0.0000   2.7720   1.1349  -1.0327
 104 C_e :2py    0.0000  -0.0000  -0.0000  -0.0000   2.5251  -1.2804  -1.0641
 105 C_e :2pz    0.0287   0.0074   0.0699   0.0578  -0.0000   0.0000  -0.0000
 107 C_e :3d1-   0.0047   0.0094   0.0068  -0.0122  -0.0000   0.0000  -0.0000
 109 C_e :3d1+   0.0125   0.0095   0.0135  -0.0124   0.0000  -0.0000  -0.0000
 111 C_e :3d2-  -0.0000  -0.0000   0.0000   0.0000   0.0295  -0.0597  -0.0247
 113 C_e :3d0    0.0000   0.0000  -0.0000   0.0000  -0.0065  -0.0309  -0.0021
 114 C_e :3d1+   0.0052   0.0069   0.0069  -0.0150  -0.0000   0.0000   0.0000
 115 C_e :3d2+  -0.0000   0.0000  -0.0000  -0.0000   0.0711  -0.0378  -0.0573
 117 C_f :1s    -0.0000   0.0000  -0.0000   0.0000  -0.0003   0.0322  -0.0048
 118 C_f :1s     0.0000   0.0000   0.0000   0.0000  -0.0325  -0.1347   0.1098
 119 C_f :1s     0.0000   0.0000  -0.0000   0.0000  -0.5407  -9.6879   2.1169
 120 C_f :2px    0.0000  -0.0000   0.0000   0.0000   0.0001   0.0195  -0.0001
 121 C_f :2py    0.0000  -0.0000   0.0000   0.0000  -0.0014  -0.0210   0.0015
 122 C_f :2pz    0.2092   0.1358   0.1929  -0.1878   0.0000  -0.0000  -0.0000
 123 C_f :2px   -0.0000  -0.0000   0.0000  -0.0000   0.2160  -0.1591  -0.0936
 124 C_f :2py    0.0000  -0.0000   0.0000   0.0000   0.1083  -0.0356  -0.0136
 125 C_f :2pz    0.0084   0.0021   0.0149  -0.0227   0.0000  -0.0000  -0.0000
 126 C_f :2px   -0.0000  -0.0000   0.0000  -0.0000   2.8329   2.5541  -1.9900
 127 C_f :2py   -0.0000   0.0000  -0.0000   0.0000   2.0054  -0.2805  -1.1409
 128 C_f :2pz    0.0234   0.0125   0.0538  -0.1480   0.0000  -0.0000  -0.0000
 130 C_f :3d1-  -0.0066   0.0056  -0.0128  -0.0055  -0.0000   0.0000   0.0000
 132 C_f :3d1+  -0.0140   0.0018  -0.0183  -0.0047   0.0000  -0.0000   0.0000
 134 C_f :3d2-  -0.0000  -0.0000   0.0000  -0.0000   0.0312  -0.0357  -0.0190
 135 C_f :3d1-  -0.0069   0.0009  -0.0132  -0.0013   0.0000  -0.0000  -0.0000
 136 C_f :3d0    0.0000  -0.0000   0.0000  -0.0000  -0.0073   0.0310  -0.0078
 137 C_f :3d1+  -0.0074   0.0034  -0.0126  -0.0084  -0.0000   0.0000  -0.0000
 138 C_f :3d2+  -0.0000   0.0000  -0.0000   0.0000  -0.0808   0.0469   0.0150
 140 C_g :1s     0.0000  -0.0000   0.0000  -0.0000  -0.0026  -0.0264   0.0116
 141 C_g :1s     0.0000   0.0000  -0.0000   0.0000  -0.0046   0.1800  -0.0514
 142 C_g :1s     0.0000  -0.0000   0.0000  -0.0000   1.3236   8.7187  -3.8329
 143 C_g :2px   -0.0000   0.0000  -0.0000   0.0000  -0.0003   0.0112  -0.0054
 144 C_g :2py   -0.0000  -0.0000  -0.0000  -0.0000  -0.0005  -0.0122   0.0067
 145 C_g :2pz   -0.1204   0.1275  -0.2660  -0.0643  -0.0000   0.0000   0.0000
 146 C_g :2px    0.0000   0.0000  -0.0000   0.0000   0.1371  -0.1291  -0.0104
 147 C_g :2py   -0.0000  -0.0000   0.0000  -0.0000   0.1758  -0.0989  -0.0411
 148 C_g :2pz   -0.0087   0.0018  -0.0183  -0.0047  -0.0000   0.0000   0.0000
 149 C_g :2px    0.0000   0.0000  -0.0000   0.0000   2.7644   0.7134  -1.5104
 150 C_g :2py    0.0000  -0.0000  -0.0000   0.0000   2.0783  -1.2987  -0.3901
 151 C_g :2pz   -0.0170   0.0161  -0.0733  -0.0330  -0.0000   0.0000   0.0000
 153 C_g :3d1-  -0.0096  -0.0061  -0.0083   0.0103  -0.0000   0.0000   0.0000
 155 C_g :3d1+  -0.0141  -0.0028  -0.0153   0.0106   0.0000  -0.0000   0.0000
 157 C_g :3d2-  -0.0000  -0.0000  -0.0000  -0.0000   0.0066  -0.0420  -0.0138
 158 C_g :3d1-  -0.0056  -0.0006  -0.0106   0.0086   0.0000  -0.0000  -0.0000
 159 C_g :3d0    0.0000   0.0000  -0.0000   0.0000  -0.0130  -0.0311   0.0159
 160 C_g :3d1+  -0.0077  -0.0036  -0.0083   0.0125  -0.0000   0.0000   0.0000
 161 C_g :3d2+  -0.0000   0.0000  -0.0000  -0.0000   0.0714  -0.0481  -0.0246
 163 C_h :1s    -0.0000   0.0000  -0.0000   0.0000   0.0027   0.0285  -0.0181
 164 C_h :1s     0.0000  -0.0000   0.0000   0.0000  -0.0516  -0.0930   0.1023
 165 C_h :1s    -0.0000   0.0000  -0.0000   0.0000   0.3297  -8.2462   5.1849
 166 C_h :2px    0.0000   0.0000   0.0000   0.0000   0.0022   0.0173  -0.0090
 167 C_h :2py    0.0000   0.0000   0.0000   0.0000  -0.0047  -0.0188   0.0111
 168 C_h :2pz   -0.2205  -0.0326  -0.2185   0.1574   0.0000  -0.0000   0.0000
 169 C_h :2px    0.0000   0.0000  -0.0000   0.0000   0.1361  -0.1616  -0.0112
 170 C_h :2py    0.0000  -0.0000   0.0000   0.0000   0.1177  -0.0321  -0.0490
 171 C_h :2pz   -0.0040   0.0034  -0.0154   0.0191   0.0000  -0.0000  -0.0000
 172 C_h :2px    0.0000  -0.0000  -0.0000  -0.0000   3.1005   1.5736  -1.4481
 173 C_h :2py   -0.0000  -0.0000   0.0000  -0.0000   3.2231  -0.3344  -0.7113
 174 C_h :2pz   -0.0214   0.0059  -0.0566   0.1236   0.0000  -0.0000   0.0000
 176 C_h :3d1-  -0.0015  -0.0099   0.0121   0.0037   0.0000   0.0000  -0.0000
 178 C_h :3d1+   0.0059  -0.0096   0.0186   0.0030   0.0000  -0.0000  -0.0000
 180 C_h :3d2-  -0.0000  -0.0000  -0.0000  -0.0000   0.0074  -0.0242  -0.0140
 181 C_h :3d1-   0.0028  -0.0058   0.0134   0.0002  -0.0000  -0.0000   0.0000
 182 C_h :3d0    0.0000  -0.0000   0.0000  -0.0000  -0.0051   0.0302  -0.0246
 183 C_h :3d1+   0.0012  -0.0081   0.0124   0.0060  -0.0000   0.0000   0.0000
 184 C_h :3d2+  -0.0000   0.0000  -0.0000  -0.0000  -0.0604   0.0470   0.0067
 186 C_i :1s     0.0000  -0.0000   0.0000   0.0000   0.0014  -0.0257   0.0240
 187 C_i :1s     0.0000  -0.0000   0.0000  -0.0000   0.1704   0.2235  -0.2241
 188 C_i :1s     0.0000  -0.0000   0.0000   0.0000  -0.7521   7.9992  -6.7618
 189 C_i :2px    0.0000  -0.0000  -0.0000  -0.0000  -0.0013   0.0104  -0.0103
 190 C_i :2py   -0.0000  -0.0000  -0.0000  -0.0000   0.0020  -0.0115   0.0118
 191 C_i :2pz   -0.0591  -0.2161   0.2537   0.0383  -0.0000   0.0000  -0.0000
 192 C_i :2px    0.0000  -0.0000   0.0000   0.0000   0.2132  -0.0769  -0.0760
 193 C_i :2py    0.0000   0.0000   0.0000   0.0000   0.0326  -0.0790  -0.0254
 194 C_i :2pz    0.0049  -0.0072   0.0178   0.0018  -0.0000   0.0000  -0.0000
 195 C_i :2px   -0.0000   0.0000   0.0000   0.0000   2.8549   1.2435  -2.9049
 196 C_i :2py   -0.0000   0.0000  -0.0000  -0.0000   3.0640  -0.4632  -1.5403
 197 C_i :2pz   -0.0040  -0.0361   0.0729   0.0123  -0.0000   0.0000  -0.0000
 201 C_i :3d1+   0.0082  -0.0047   0.0163  -0.0088   0.0000  -0.0000   0.0000
 203 C_i :3d2-  -0.0000   0.0000  -0.0000   0.0000  -0.0646  -0.0362   0.0304
 204 C_i :3d1-   0.0025  -0.0037   0.0111  -0.0072  -0.0000  -0.0000  -0.0000
 205 C_i :3d0   -0.0000   0.0000  -0.0000  -0.0000   0.0039  -0.0314   0.0285
 206 C_i :3d1+   0.0062  -0.0006   0.0092  -0.0101  -0.0000   0.0000  -0.0000
 207 C_i :3d2+   0.0000  -0.0000  -0.0000   0.0000   0.0745  -0.0304  -0.0428
 209 C_j :1s    -0.0000   0.0000  -0.0000  -0.0000   0.0007   0.0263  -0.0301
[...]

       No.  Residual tot.,    conf., and orb.    Bnorm      Frequency 
      ----------------------------------------------------------------
         1    1.20834D-01  0.00D+00  1.21D-01  6.30D+01    0.00000D+00
         2    1.25462D-01  0.00D+00  1.25D-01  6.54D+01    1.64000D-02
         3    1.41343D-01  0.00D+00  1.41D-01  7.33D+01    3.28000D-02

 ** RSPCTL MICROITERATION NUMBER    7

       No.  Residual tot.,    conf., and orb.    Bnorm      Frequency 
      ----------------------------------------------------------------
         1    3.57494D-02  0.00D+00  3.57D-02  6.30D+01    0.00000D+00
         2    3.73406D-02  0.00D+00  3.73D-02  6.54D+01    1.64000D-02
         3    4.28838D-02  0.00D+00  4.29D-02  7.33D+01    3.28000D-02

 *** THE REQUESTED    3 SOLUTION VECTORS CONVERGED

 Convergence of RSP solution vectors, threshold = 1.00D-03
 ---------------------------------------------------------------
 (dimension of paired reduced space:   42)
 RSP solution vector no.    1; norm of residual   5.67D-04
 RSP solution vector no.    2; norm of residual   5.71D-04
 RSP solution vector no.    3; norm of residual   5.85D-04

 *** RSPCTL MICROITERATIONS CONVERGED

@ QRLRVE: SINGLET SOLUTION FOR SYMMETRY    1  ( A  )    LABEL   YDIPLEN     FREQUENCY   0.000000D+00

@ QRLRVE:  << XDIPLEN  ; YDIPLEN  >> (   0.00000):     851.191889261    

@ QRLRVE:  << YDIPLEN  ; YDIPLEN  >> (   0.00000):     891.697954721    

@ QRLRVE:  << ZDIPLEN  ; YDIPLEN  >> (   0.00000):    2.363968939986E-13

@ QRLRVE: SINGLET SOLUTION FOR SYMMETRY    1  ( A  )    LABEL   YDIPLEN     FREQUENCY   0.164000D-01

@ QRLRVE:  << XDIPLEN  ; YDIPLEN  >> (   0.01640):     875.010113448    

@ QRLRVE:  << YDIPLEN  ; YDIPLEN  >> (   0.01640):     910.292769066    

@ QRLRVE:  << ZDIPLEN  ; YDIPLEN  >> (   0.01640):    2.410795866945E-13

@ QRLRVE: SINGLET SOLUTION FOR SYMMETRY    1  ( A  )    LABEL   YDIPLEN     FREQUENCY   0.328000D-01

@ QRLRVE:  << XDIPLEN  ; YDIPLEN  >> (   0.03280):     955.282558780    

@ QRLRVE:  << YDIPLEN  ; YDIPLEN  >> (   0.03280):     972.886940821    

@ QRLRVE:  << ZDIPLEN  ; YDIPLEN  >> (   0.03280):    2.567454563837E-13


 QRLRVE -- linear response calculation for symmetry  1  ( A  )
 QRLRVE -- operator label : ZDIPLEN 
 QRLRVE -- operator spin  :   0
 QRLRVE -- frequencies :  0.000000  0.016400  0.032800



 ---  SOLVING SETS OF LINEAR EQUATIONS FOR LINEAR RESPONSE PROPERTIES ---

 Operator symmetry = 1  ( A  ); triplet =   F


 ** RSPCTL MICROITERATION NUMBER    1

       No.  Residual tot.,    conf., and orb.    Bnorm      Frequency 
      ----------------------------------------------------------------
         1    3.92053D+00  0.00D+00  3.92D+00  1.04D+01    0.00000D+00
         2    3.92309D+00  0.00D+00  3.92D+00  1.05D+01    1.64000D-02
         3    3.93080D+00  0.00D+00  3.93D+00  1.05D+01    3.28000D-02

 ** RSPCTL MICROITERATION NUMBER    2

       No.  Residual tot.,    conf., and orb.    Bnorm      Frequency 
      ----------------------------------------------------------------
         1    8.72012D-01  0.00D+00  8.72D-01  1.09D+01    0.00000D+00
         2    8.73799D-01  0.00D+00  8.74D-01  1.09D+01    1.64000D-02
         3    8.79201D-01  0.00D+00  8.79D-01  1.10D+01    3.28000D-02

 ** RSPCTL MICROITERATION NUMBER    3

       No.  Residual tot.,    conf., and orb.    Bnorm      Frequency 
      ----------------------------------------------------------------
         1    1.78503D-01  0.00D+00  1.79D-01  1.09D+01    0.00000D+00
         2    1.79298D-01  0.00D+00  1.79D-01  1.10D+01    1.64000D-02
         3    1.81712D-01  0.00D+00  1.82D-01  1.10D+01    3.28000D-02

 ** RSPCTL MICROITERATION NUMBER    4

       No.  Residual tot.,    conf., and orb.    Bnorm      Frequency 
      ----------------------------------------------------------------
         1    5.41203D-02  0.00D+00  5.41D-02  1.09D+01    0.00000D+00
         2    5.47312D-02  0.00D+00  5.47D-02  1.10D+01    1.64000D-02
         3    5.66247D-02  0.00D+00  5.66D-02  1.10D+01    3.28000D-02

 ** RSPCTL MICROITERATION NUMBER    5

       No.  Residual tot.,    conf., and orb.    Bnorm      Frequency 
      ----------------------------------------------------------------
         1    1.86730D-02  0.00D+00  1.87D-02  1.09D+01    0.00000D+00
         2    1.90315D-02  0.00D+00  1.90D-02  1.10D+01    1.64000D-02
         3    2.01500D-02  0.00D+00  2.02D-02  1.10D+01    3.28000D-02

 ** RSPCTL MICROITERATION NUMBER    6

       No.  Residual tot.,    conf., and orb.    Bnorm      Frequency 
      ----------------------------------------------------------------
         1    6.57144D-03  0.00D+00  6.57D-03  1.09D+01    0.00000D+00
         2    6.75923D-03  0.00D+00  6.76D-03  1.10D+01    1.64000D-02
         3    7.35065D-03  0.00D+00  7.35D-03  1.10D+01    3.28000D-02

 *** THE REQUESTED    3 SOLUTION VECTORS CONVERGED

 Convergence of RSP solution vectors, threshold = 1.00D-03
 ---------------------------------------------------------------
 (dimension of paired reduced space:   36)
 RSP solution vector no.    1; norm of residual   6.00D-04
 RSP solution vector no.    2; norm of residual   6.16D-04
 RSP solution vector no.    3; norm of residual   6.65D-04

 *** RSPCTL MICROITERATIONS CONVERGED

@ QRLRVE: SINGLET SOLUTION FOR SYMMETRY    1  ( A  )    LABEL   ZDIPLEN     FREQUENCY   0.000000D+00

@ QRLRVE:  << XDIPLEN  ; ZDIPLEN  >> (   0.00000):    1.337761068252E-13

@ QRLRVE:  << YDIPLEN  ; ZDIPLEN  >> (   0.00000):    1.740848951551E-13

@ QRLRVE:  << ZDIPLEN  ; ZDIPLEN  >> (   0.00000):     174.439741598    

@ QRLRVE: SINGLET SOLUTION FOR SYMMETRY    1  ( A  )    LABEL   ZDIPLEN     FREQUENCY   0.164000D-01

@ QRLRVE:  << XDIPLEN  ; ZDIPLEN  >> (   0.01640):    1.367483757303E-13

@ QRLRVE:  << YDIPLEN  ; ZDIPLEN  >> (   0.01640):    1.758159015028E-13

@ QRLRVE:  << ZDIPLEN  ; ZDIPLEN  >> (   0.01640):     174.602437252    

@ QRLRVE: SINGLET SOLUTION FOR SYMMETRY    1  ( A  )    LABEL   ZDIPLEN     FREQUENCY   0.328000D-01

@ QRLRVE:  << XDIPLEN  ; ZDIPLEN  >> (   0.03280):    1.467104828045E-13

@ QRLRVE:  << YDIPLEN  ; ZDIPLEN  >> (   0.03280):    1.817313344749E-13

@ QRLRVE:  << ZDIPLEN  ; ZDIPLEN  >> (   0.03280):     175.093788332    
 
 ======================================================================
 ---  L I N E A R   R E S P O N S E   F U N C T I O N S --- 
 ======================================================================

 The -<<A;B>>(omega_b) functions from vectors generated
 in a *QUADRA calculation of <<A;B,C>>(omega_b,omega_c)

 Note: the accuracy of off-diagonal elements will be linear
 in the convergence threshold THCLR =  1.00D-03


 Perturbation symmetry.     KSYMOP:           1
 Perturbation spin symmetry.TRPLET:           F
 Orbital variables.         KZWOPT:       66867
 Configuration variables.   KZCONF:           0
 Total number of variables. KZVAR :       66867

@ Singlet linear response function in a.u.

@ A operator, symmetry, frequency:   XDIPLEN    1 -0.000000
@ B operator, symmetry, frequency:   XDIPLEN    1  0.000000

@ Value of linear response -<<A;B>>(omega):    1347.492080644820

@ Singlet linear response function in a.u.

@ A operator, symmetry, frequency:   YDIPLEN    1 -0.000000
@ B operator, symmetry, frequency:   XDIPLEN    1  0.000000

@ Value of linear response -<<A;B>>(omega):     851.181156166006

@ Singlet linear response function in a.u.

@ A operator, symmetry, frequency:   ZDIPLEN    1 -0.000000
@ B operator, symmetry, frequency:   XDIPLEN    1  0.000000

@ Value of linear response -<<A;B>>(omega):       0.000000000000

@ Singlet linear response function in a.u.

@ A operator, symmetry, frequency:   XDIPLEN    1 -0.016400
@ B operator, symmetry, frequency:   XDIPLEN    1  0.016400

@ Value of linear response -<<A;B>>(omega):    1378.710905538497

@ Singlet linear response function in a.u.

@ A operator, symmetry, frequency:   YDIPLEN    1 -0.016400
@ B operator, symmetry, frequency:   XDIPLEN    1  0.016400

@ Value of linear response -<<A;B>>(omega):     874.999374572707

@ Singlet linear response function in a.u.

@ A operator, symmetry, frequency:   ZDIPLEN    1 -0.016400
@ B operator, symmetry, frequency:   XDIPLEN    1  0.016400

@ Value of linear response -<<A;B>>(omega):       0.000000000000

@ Singlet linear response function in a.u.

@ A operator, symmetry, frequency:   XDIPLEN    1 -0.000000
@ B operator, symmetry, frequency:   YDIPLEN    1  0.000000

@ Value of linear response -<<A;B>>(omega):     851.191889260806

@ Singlet linear response function in a.u.

@ A operator, symmetry, frequency:   YDIPLEN    1 -0.000000
@ B operator, symmetry, frequency:   YDIPLEN    1  0.000000

@ Value of linear response -<<A;B>>(omega):     891.697954721438

@ Singlet linear response function in a.u.

@ A operator, symmetry, frequency:   ZDIPLEN    1 -0.000000
@ B operator, symmetry, frequency:   YDIPLEN    1  0.000000

@ Value of linear response -<<A;B>>(omega):       0.000000000000

@ Singlet linear response function in a.u.

@ A operator, symmetry, frequency:   XDIPLEN    1 -0.016400
@ B operator, symmetry, frequency:   YDIPLEN    1  0.016400

@ Value of linear response -<<A;B>>(omega):     875.010113448034

@ Singlet linear response function in a.u.

@ A operator, symmetry, frequency:   YDIPLEN    1 -0.016400
@ B operator, symmetry, frequency:   YDIPLEN    1  0.016400

@ Value of linear response -<<A;B>>(omega):     910.292769065539

@ Singlet linear response function in a.u.

@ A operator, symmetry, frequency:   ZDIPLEN    1 -0.016400
@ B operator, symmetry, frequency:   YDIPLEN    1  0.016400

@ Value of linear response -<<A;B>>(omega):       0.000000000000

@ Singlet linear response function in a.u.

@ A operator, symmetry, frequency:   XDIPLEN    1 -0.000000
@ B operator, symmetry, frequency:   ZDIPLEN    1  0.000000

@ Value of linear response -<<A;B>>(omega):       0.000000000000

@ Singlet linear response function in a.u.

@ A operator, symmetry, frequency:   YDIPLEN    1 -0.000000
@ B operator, symmetry, frequency:   ZDIPLEN    1  0.000000

@ Value of linear response -<<A;B>>(omega):       0.000000000000

@ Singlet linear response function in a.u.

@ A operator, symmetry, frequency:   ZDIPLEN    1 -0.000000
@ B operator, symmetry, frequency:   ZDIPLEN    1  0.000000

@ Value of linear response -<<A;B>>(omega):     174.439741597520

@ Singlet linear response function in a.u.

@ A operator, symmetry, frequency:   XDIPLEN    1 -0.016400
@ B operator, symmetry, frequency:   ZDIPLEN    1  0.016400

@ Value of linear response -<<A;B>>(omega):       0.000000000000

@ Singlet linear response function in a.u.

@ A operator, symmetry, frequency:   YDIPLEN    1 -0.016400
@ B operator, symmetry, frequency:   ZDIPLEN    1  0.016400

@ Value of linear response -<<A;B>>(omega):       0.000000000000

@ Singlet linear response function in a.u.

@ A operator, symmetry, frequency:   ZDIPLEN    1 -0.016400
@ B operator, symmetry, frequency:   ZDIPLEN    1  0.016400

@ Value of linear response -<<A;B>>(omega):     174.602437251719


  Results from quadratic response calculation
 --------------------------------------------

@ B-freq = 0.000000  C-freq = 0.000000     beta(X;X,X) =  30473.02766667
@ B-freq = 0.000000  C-freq = 0.000000     beta(Y;X,X) =  31587.44673706
@ B-freq = 0.000000  C-freq = 0.000000     beta(Z;X,X) =      0.00000000
@ B-freq = 0.016400  C-freq = 0.000000     beta(X;X,X) =  32544.28222615
@ B-freq = 0.016400  C-freq = 0.000000     beta(Y;X,X) =  33451.48672215
@ B-freq = 0.016400  C-freq = 0.000000     beta(Z;X,X) =      0.00000000
@ B-freq = 0.000000  C-freq = 0.000000     beta(X;Y,X) = beta(Y,X,X)
@ B-freq = 0.000000  C-freq = 0.000000     beta(X;Y,X) =  31587.44424241
@ B-freq = 0.000000  C-freq = 0.000000     beta(Y;Y,X) =  31441.35246990
@ B-freq = 0.000000  C-freq = 0.000000     beta(Z;Y,X) =      0.00000000
@ B-freq = 0.016400  C-freq = 0.000000     beta(X;Y,X) =  33451.48411935
@ B-freq = 0.016400  C-freq = 0.000000     beta(Y;Y,X) =  33094.98204215
@ B-freq = 0.016400  C-freq = 0.000000     beta(Z;Y,X) =      0.00000000
@ B-freq = 0.000000  C-freq = 0.000000     beta(X;Z,X) = beta(Z,X,X)
@ B-freq = 0.000000  C-freq = 0.000000     beta(Y;Z,X) = beta(Z,Y,X)
@ B-freq = 0.000000  C-freq = 0.000000     beta(X;Z,X) =      0.00000000
@ B-freq = 0.000000  C-freq = 0.000000     beta(Y;Z,X) =      0.00000000
@ B-freq = 0.000000  C-freq = 0.000000     beta(Z;Z,X) =    -24.60195260
@ B-freq = 0.016400  C-freq = 0.000000     beta(X;Z,X) =      0.00000000
@ B-freq = 0.016400  C-freq = 0.000000     beta(Y;Z,X) =      0.00000000
@ B-freq = 0.016400  C-freq = 0.000000     beta(Z;Z,X) =    -25.06015211
@ B-freq = 0.000000  C-freq = 0.016400     beta(X;X,X) = beta(X,X,X)
@ B-freq = 0.000000  C-freq = 0.016400     beta(Y;X,X) = beta(Y,X,X)
@ B-freq = 0.000000  C-freq = 0.016400     beta(Z;X,X) = beta(Z,X,X)
@ B-freq = 0.016400  C-freq = 0.016400     beta(X;X,X) =  37306.02236176
@ B-freq = 0.016400  C-freq = 0.016400     beta(Y;X,X) =  37448.37125856
@ B-freq = 0.016400  C-freq = 0.016400     beta(Z;X,X) =      0.00000000
@ B-freq = 0.000000  C-freq = 0.016400     beta(X;Y,X) =  33680.22003149
@ B-freq = 0.000000  C-freq = 0.016400     beta(Y;Y,X) =  33291.28773256
@ B-freq = 0.000000  C-freq = 0.016400     beta(Z;Y,X) =      0.00000000
@ B-freq = 0.016400  C-freq = 0.016400     beta(X;Y,X) =  38227.50060050
@ B-freq = 0.016400  C-freq = 0.016400     beta(Y;Y,X) =  37070.67945111
@ B-freq = 0.016400  C-freq = 0.016400     beta(Z;Y,X) =      0.00000000
@ B-freq = 0.000000  C-freq = 0.016400     beta(X;Z,X) =      0.00000000
@ B-freq = 0.000000  C-freq = 0.016400     beta(Y;Z,X) =      0.00000000
@ B-freq = 0.000000  C-freq = 0.016400     beta(Z;Z,X) =    -24.89013193
@ B-freq = 0.016400  C-freq = 0.016400     beta(X;Z,X) =      0.00000000
@ B-freq = 0.016400  C-freq = 0.016400     beta(Y;Z,X) =      0.00000000
@ B-freq = 0.016400  C-freq = 0.016400     beta(Z;Z,X) =    -25.84541182
@ B-freq = 0.000000  C-freq = 0.000000     beta(X;X,Y) = beta(Y,X,X)
@ B-freq = 0.000000  C-freq = 0.000000     beta(Y;X,Y) = beta(Y,Y,X)
@ B-freq = 0.000000  C-freq = 0.000000     beta(Z;X,Y) = beta(Z,Y,X)
@ B-freq = 0.016400  C-freq = 0.000000     beta(X;X,Y) = beta(X,Y,X)
@ B-freq = 0.016400  C-freq = 0.000000     beta(Y;X,Y) = beta(Y,Y,X)
@ B-freq = 0.016400  C-freq = 0.000000     beta(Z;X,Y) = beta(Z,Y,X)
@ B-freq = 0.000000  C-freq = 0.000000     beta(X;Y,Y) = beta(Y,Y,X)
@ B-freq = 0.000000  C-freq = 0.000000     beta(X;Y,Y) =  31441.35056729
@ B-freq = 0.000000  C-freq = 0.000000     beta(Y;Y,Y) =  30362.13471301
@ B-freq = 0.000000  C-freq = 0.000000     beta(Z;Y,Y) =      0.00000000
@ B-freq = 0.016400  C-freq = 0.000000     beta(X;Y,Y) =  33291.28574829
@ B-freq = 0.016400  C-freq = 0.000000     beta(Y;Y,Y) =  31980.17898543
@ B-freq = 0.016400  C-freq = 0.000000     beta(Z;Y,Y) =      0.00000000
@ B-freq = 0.000000  C-freq = 0.000000     beta(X;Z,Y) = beta(Z,Y,X)
@ B-freq = 0.000000  C-freq = 0.000000     beta(Y;Z,Y) = beta(Z,Y,Y)
@ B-freq = 0.000000  C-freq = 0.000000     beta(X;Z,Y) =      0.00000000
@ B-freq = 0.000000  C-freq = 0.000000     beta(Y;Z,Y) =      0.00000000
@ B-freq = 0.000000  C-freq = 0.000000     beta(Z;Z,Y) =    -28.40436049
@ B-freq = 0.016400  C-freq = 0.000000     beta(X;Z,Y) =      0.00000000
@ B-freq = 0.016400  C-freq = 0.000000     beta(Y;Z,Y) =      0.00000000
@ B-freq = 0.016400  C-freq = 0.000000     beta(Z;Z,Y) =    -28.77364597
@ B-freq = 0.000000  C-freq = 0.016400     beta(X;X,Y) = beta(X,Y,X)
@ B-freq = 0.000000  C-freq = 0.016400     beta(Y;X,Y) = beta(Y,Y,X)
@ B-freq = 0.000000  C-freq = 0.016400     beta(Z;X,Y) = beta(Z,Y,X)
@ B-freq = 0.016400  C-freq = 0.016400     beta(X;X,Y) = beta(X,Y,X)
@ B-freq = 0.016400  C-freq = 0.016400     beta(Y;X,Y) = beta(Y,Y,X)
@ B-freq = 0.016400  C-freq = 0.016400     beta(Z;X,Y) = beta(Z,Y,X)
@ B-freq = 0.000000  C-freq = 0.016400     beta(X;Y,Y) = beta(X,Y,Y)
@ B-freq = 0.000000  C-freq = 0.016400     beta(Y;Y,Y) = beta(Y,Y,Y)
@ B-freq = 0.000000  C-freq = 0.016400     beta(Z;Y,Y) = beta(Z,Y,Y)
@ B-freq = 0.016400  C-freq = 0.016400     beta(X;Y,Y) =  37740.18831835
@ B-freq = 0.016400  C-freq = 0.016400     beta(Y;Y,Y) =  35656.64650339
@ B-freq = 0.016400  C-freq = 0.016400     beta(Z;Y,Y) =      0.00000000
@ B-freq = 0.000000  C-freq = 0.016400     beta(X;Z,Y) =      0.00000000
@ B-freq = 0.000000  C-freq = 0.016400     beta(Y;Z,Y) =      0.00000000
@ B-freq = 0.000000  C-freq = 0.016400     beta(Z;Z,Y) =    -28.63135265
@ B-freq = 0.016400  C-freq = 0.016400     beta(X;Z,Y) =      0.00000000
@ B-freq = 0.016400  C-freq = 0.016400     beta(Y;Z,Y) =      0.00000000
@ B-freq = 0.016400  C-freq = 0.016400     beta(Z;Z,Y) =    -29.39905935
@ B-freq = 0.000000  C-freq = 0.000000     beta(X;X,Z) = beta(Z,X,X)
@ B-freq = 0.000000  C-freq = 0.000000     beta(Y;X,Z) = beta(Z,Y,X)
@ B-freq = 0.000000  C-freq = 0.000000     beta(Z;X,Z) = beta(Z,Z,X)
@ B-freq = 0.016400  C-freq = 0.000000     beta(X;X,Z) = beta(X,Z,X)
@ B-freq = 0.016400  C-freq = 0.000000     beta(Y;X,Z) = beta(Y,Z,X)
@ B-freq = 0.016400  C-freq = 0.000000     beta(Z;X,Z) = beta(Z,Z,X)
@ B-freq = 0.000000  C-freq = 0.000000     beta(X;Y,Z) = beta(Z,Y,X)
@ B-freq = 0.000000  C-freq = 0.000000     beta(Y;Y,Z) = beta(Z,Y,Y)
@ B-freq = 0.000000  C-freq = 0.000000     beta(Z;Y,Z) = beta(Z,Z,Y)
@ B-freq = 0.016400  C-freq = 0.000000     beta(X;Y,Z) = beta(X,Z,Y)
@ B-freq = 0.016400  C-freq = 0.000000     beta(Y;Y,Z) = beta(Y,Z,Y)
@ B-freq = 0.016400  C-freq = 0.000000     beta(Z;Y,Z) = beta(Z,Z,Y)
@ B-freq = 0.000000  C-freq = 0.000000     beta(X;Z,Z) = beta(Z,Z,X)
@ B-freq = 0.000000  C-freq = 0.000000     beta(Y;Z,Z) = beta(Z,Z,Y)
@ B-freq = 0.000000  C-freq = 0.000000     beta(X;Z,Z) =    -24.60185800
@ B-freq = 0.000000  C-freq = 0.000000     beta(Y;Z,Z) =    -28.40427792
@ B-freq = 0.000000  C-freq = 0.000000     beta(Z;Z,Z) =      0.00000000
@ B-freq = 0.016400  C-freq = 0.000000     beta(X;Z,Z) =    -24.89003352
@ B-freq = 0.016400  C-freq = 0.000000     beta(Y;Z,Z) =    -28.63126715
@ B-freq = 0.016400  C-freq = 0.000000     beta(Z;Z,Z) =      0.00000000
@ B-freq = 0.000000  C-freq = 0.016400     beta(X;X,Z) = beta(X,Z,X)
@ B-freq = 0.000000  C-freq = 0.016400     beta(Y;X,Z) = beta(Y,Z,X)
@ B-freq = 0.000000  C-freq = 0.016400     beta(Z;X,Z) = beta(Z,Z,X)
@ B-freq = 0.016400  C-freq = 0.016400     beta(X;X,Z) = beta(X,Z,X)
@ B-freq = 0.016400  C-freq = 0.016400     beta(Y;X,Z) = beta(Y,Z,X)
@ B-freq = 0.016400  C-freq = 0.016400     beta(Z;X,Z) = beta(Z,Z,X)
@ B-freq = 0.000000  C-freq = 0.016400     beta(X;Y,Z) = beta(X,Z,Y)
@ B-freq = 0.000000  C-freq = 0.016400     beta(Y;Y,Z) = beta(Y,Z,Y)
@ B-freq = 0.000000  C-freq = 0.016400     beta(Z;Y,Z) = beta(Z,Z,Y)
@ B-freq = 0.016400  C-freq = 0.016400     beta(X;Y,Z) = beta(X,Z,Y)
@ B-freq = 0.016400  C-freq = 0.016400     beta(Y;Y,Z) = beta(Y,Z,Y)
@ B-freq = 0.016400  C-freq = 0.016400     beta(Z;Y,Z) = beta(Z,Z,Y)
@ B-freq = 0.000000  C-freq = 0.016400     beta(X;Z,Z) = beta(X,Z,Z)
@ B-freq = 0.000000  C-freq = 0.016400     beta(Y;Z,Z) = beta(Y,Z,Z)
@ B-freq = 0.000000  C-freq = 0.016400     beta(Z;Z,Z) = beta(Z,Z,Z)
@ B-freq = 0.016400  C-freq = 0.016400     beta(X;Z,Z) =    -25.29640810
@ B-freq = 0.016400  C-freq = 0.016400     beta(Y;Z,Z) =    -28.94167900
@ B-freq = 0.016400  C-freq = 0.016400     beta(Z;Z,Z) =      0.00000000

  Total CPU  time used in RESPONSE:  8 minutes  3 seconds
  Total wall time used in RESPONSE:  8 minutes  3 seconds


                   .-------------------------------------------.
                   | End of Dynamic Property Section (RESPONS) |
                   `-------------------------------------------'

  Total CPU  time used in DALTON: 11 minutes  3 seconds
  Total wall time used in DALTON: 11 minutes  3 seconds

 
     Date and time (Linux)  : Tue May 27 12:58:39 2025
     Host name              : xm059                                   
