

     ************************************************************************
     *************** Dalton - An Electronic Structure Program ***************
     ************************************************************************

    This is output from DALTON release Dalton2020.0 (2020)
         ( Web site: http://daltonprogram.org )

   ----------------------------------------------------------------------------

    NOTE:
     
    Dalton is an experimental code for the evaluation of molecular
    properties using (MC)SCF, DFT, CI, and CC wave functions.
    The authors accept no responsibility for the performance of
    the code or for the correctness of the results.
     
    The code (in whole or part) is provided under a licence and
    is not to be reproduced for further distribution without
    the written permission of the authors or their representatives.
     
    See the home page "http://daltonprogram.org" for further information.
     
    If results obtained with this code are published,
    the appropriate citations would be both of:
     
       K. Aidas, C. Angeli, K. L. Bak, V. Bakken, R. Bast,
       L. Boman, O. Christiansen, R. Cimiraglia, S. Coriani,
       P. Dahle, E. K. Dalskov, U. Ekstroem,
       T. Enevoldsen, J. J. Eriksen, P. Ettenhuber, B. Fernandez,
       L. Ferrighi, H. Fliegl, L. Frediani, K. Hald, A. Halkier,
       C. Haettig, H. Heiberg, T. Helgaker, A. C. Hennum,
       H. Hettema, E. Hjertenaes, S. Hoest, I.-M. Hoeyvik,
       M. F. Iozzi, B. Jansik, H. J. Aa. Jensen, D. Jonsson,
       P. Joergensen, J. Kauczor, S. Kirpekar,
       T. Kjaergaard, W. Klopper, S. Knecht, R. Kobayashi, H. Koch,
       J. Kongsted, A. Krapp, K. Kristensen, A. Ligabue,
       O. B. Lutnaes, J. I. Melo, K. V. Mikkelsen, R. H. Myhre,
       C. Neiss, C. B. Nielsen, P. Norman, J. Olsen,
       J. M. H. Olsen, A. Osted, M. J. Packer, F. Pawlowski,
       T. B. Pedersen, P. F. Provasi, S. Reine, Z. Rinkevicius,
       T. A. Ruden, K. Ruud, V. Rybkin, P. Salek, C. C. M. Samson,
       A. Sanchez de Meras, T. Saue, S. P. A. Sauer,
       B. Schimmelpfennig, K. Sneskov, A. H. Steindal,
       K. O. Sylvester-Hvid, P. R. Taylor, A. M. Teale,
       E. I. Tellgren, D. P. Tew, A. J. Thorvaldsen, L. Thoegersen,
       O. Vahtras, M. A. Watson, D. J. D. Wilson, M. Ziolkowski
       and H. Agren,
       "The Dalton quantum chemistry program system",
       WIREs Comput. Mol. Sci. 2014, 4:269–284 (doi: 10.1002/wcms.1172)
     
    and
     
       Dalton, a molecular electronic structure program,
       Release Dalton2020.0 (2020), see http://daltonprogram.org
   ----------------------------------------------------------------------------

    Authors in alphabetical order (Major contribution(s) in parenthesis):

  Kestutis Aidas,           Vilnius University,           Lithuania   (QM/MM)
  Celestino Angeli,         University of Ferrara,        Italy       (NEVPT2)
  Keld L. Bak,              UNI-C,                        Denmark     (AOSOPPA, non-adiabatic coupling, magnetic properties)
  Vebjoern Bakken,          University of Oslo,           Norway      (DALTON; geometry optimizer, symmetry detection)
  Radovan Bast,             UiT The Arctic U. of Norway,  Norway      (DALTON installation and execution frameworks)
  Pablo Baudin,             University of Valencia,       Spain       (Cholesky excitation energies)
  Linus Boman,              NTNU,                         Norway      (Cholesky decomposition and subsystems)
  Bruno N. Cabral Tenorio,  Technical Univ. of Denmark,   Denmark     (Lanczos-based CC methods)
  Ove Christiansen,         Aarhus University,            Denmark     (CC module)
  Renzo Cimiraglia,         University of Ferrara,        Italy       (NEVPT2)
  Sonia Coriani,            Technical Univ. of Denmark,   Denmark     (CC and RESPONS modules)
  Janusz Cukras,            University of Warsaw,         Poland      (MChD in RESPONS)
  Paal Dahle,               University of Oslo,           Norway      (Parallelization)
  Erik K. Dalskov,          UNI-C,                        Denmark     (SOPPA)
  Thomas Enevoldsen,        Univ. of Southern Denmark,    Denmark     (SOPPA)
  Janus J. Eriksen,         Aarhus University,            Denmark     (Polarizable embedding, TDA)
  Rasmus Faber,             Technical Univ. of Denmark,   Denmark     (Vib.avg. NMR w. SOPPA, parallel AO-SOPPA, CVS-CC and EOMCC)
  Tobias Fahleson,          KTH Stockholm,                Sweden      (Damped cubic response)
  Berta Fernandez,          U. of Santiago de Compostela, Spain       (Doublet spin, ESR in RESPONS)
  Lara Ferrighi,            Aarhus University,            Denmark     (PCM Cubic response)
  Heike Fliegl,             University of Oslo,           Norway      (CCSD(R12))
  Luca Frediani,            UiT The Arctic U. of Norway,  Norway      (PCM)
  Emmanuel Fromager,        Univ. Strasbourg,             France      (MC-srDFT)
  Bin Gao,                  UiT The Arctic U. of Norway,  Norway      (Gen1Int library)
  Andre S. P. Gomes,        CNRS/Universite de Lille,     France      (Frozen density embedding)
  Christof Haettig,         Ruhr-University Bochum,       Germany     (CC module)
  Kasper Hald,              Aarhus University,            Denmark     (CC module)
  Asger Halkier,            Aarhus University,            Denmark     (CC module)
  Frederik Beyer Hansen,    University of Copenhagen,     Denmark     (Parallel AO-SOPPA)
  Erik D. Hedegaard,        Univ. of Southern Denmark,    Denmark     (Polarizable embedding, QM/MM, and MC-srDFT)
  Hanne Heiberg,            University of Oslo,           Norway      (Geometry analysis, selected one-electron integrals)
  Trygve Helgaker,          University of Oslo,           Norway      (DALTON; ABACUS, ERI, DFT modules, London, and much more)
  Alf Christian Hennum,     University of Oslo,           Norway      (Parity violation)
  Hinne Hettema,            University of Auckland,       New Zealand (Quadratic response in RESPONS; SIRIUS supersymmetry)
  Eirik Hjertenaes,         NTNU,                         Norway      (Cholesky decomposition)
  Pi A. B. Haase,           University of Copenhagen,     Denmark     (Triplet AO-SOPPA)
  Maria Francesca Iozzi,    University of Oslo,           Norway      (RPA)
  Christoph Jacob           TU Braunschweig               Germany     (Frozen density embedding)
  Brano Jansik              Technical Univ. of Ostrava    Czech Rep.  (DFT cubic response)
  Hans Joergen Aa. Jensen,  Univ. of Southern Denmark,    Denmark     (DALTON; SIRIUS, RESPONS, ABACUS, MC-srDFT, and much more)
  Dan Jonsson,              UiT The Arctic U. of Norway,  Norway      (Cubic response in RESPONS module)
  Poul Joergensen,          Aarhus University,            Denmark     (RESPONS, ABACUS, and CC modules)
  Maciej Kaminski,          University of Warsaw,         Poland      (CPPh in RESPONS)
  Joanna Kauczor,           Linkoeping University,        Sweden      (Complex polarization propagator (CPP) module)
  Sheela Kirpekar,          Univ. of Southern Denmark,    Denmark     (Mass-velocity & Darwin integrals)
  Erik Kjellgren,           Univ. of Southern Denmark,    Denmark     (MC-srDFT)
  Wim Klopper,              KIT Karlsruhe,                Germany     (R12 code in CC, SIRIUS, and ABACUS modules)
  Stefan Knecht,            ETH Zurich,                   Switzerland (Parallel CI and MCSCF, MC-srDFT)
  Rika Kobayashi,           Australian National Univ.,    Australia   (DIIS in CC, London in MCSCF)
  Henrik Koch,              NTNU,                         Norway      (CC module, Cholesky decomposition)
  Jacob Kongsted,           Univ. of Southern Denmark,    Denmark     (Polarizable embedding, polarizable density embedding, QM/MM)
  Andrea Ligabue,           University of Modena,         Italy       (CTOCD, AOSOPPA)
  Nanna H. List             Univ. of Southern Denmark,    Denmark     (Polarizable embedding)
  Ola B. Lutnaes,           University of Oslo,           Norway      (DFT Hessian)
  Juan I. Melo,             University of Buenos Aires,   Argentina   (LRESC, Relativistic Effects on NMR Shieldings)
  Kurt V. Mikkelsen,        University of Copenhagen,     Denmark     (MC-SCRF and QM/MM)
  Rolf H. Myhre,            NTNU,                         Norway      (Subsystems and CC3)
  Christian Neiss,          Univ. Erlangen-Nuernberg,     Germany     (CCSD(R12))
  Christian B. Nielsen,     University of Copenhagen,     Denmark     (QM/MM)
  Patrick Norman,           KTH Stockholm,                Sweden      (Cubic response and complex frequency response in RESPONS)
  Jeppe Olsen,              Aarhus University,            Denmark     (SIRIUS CI/density modules)
  Jogvan Magnus H. Olsen,   Aarhus University,            Denmark     (Polarizable embedding and polarizable density embedding)
  Anders Osted,             Copenhagen University,        Denmark     (QM/MM)
  Martin J. Packer,         University of Sheffield,      UK          (SOPPA)
  Filip Pawlowski,          Kazimierz Wielki University,  Poland      (CC3)
  Morten N. Pedersen,       Univ. of Southern Denmark,    Denmark     (Polarizable embedding)
  Thomas B. Pedersen,       University of Oslo,           Norway      (Cholesky decomposition)
  Patricio F. Provasi,      University of Northeastern,   Argentina   (Analysis of coupling constants in localized orbitals)
  Peter Reinholdt,          Univ. of Southern Denmark,    Denmark     (Polarizable embedding and polarizable density embedding)
  Zilvinas Rinkevicius,     KTH Stockholm,                Sweden      (open-shell DFT, ESR)
  Elias Rudberg,            KTH Stockholm,                Sweden      (DFT grid and basis info)
  Torgeir A. Ruden,         University of Oslo,           Norway      (Numerical derivatives in ABACUS)
  Kenneth Ruud,             UiT The Arctic U. of Norway,  Norway      (DALTON; ABACUS magnetic properties and much more)
  Pawel Salek,              KTH Stockholm,                Sweden      (DALTON; DFT code)
  Claire C. M. Samson       University of Karlsruhe       Germany     (Boys localization, r12 integrals in ERI)
  Alfredo Sanchez de Meras, University of Valencia,       Spain       (CC module, Cholesky decomposition)
  Trond Saue,               Paul Sabatier University,     France      (direct Fock matrix construction)
  Stephan P. A. Sauer,      University of Copenhagen,     Denmark     (SOPPA(CCSD), SOPPA prop., AOSOPPA, vibrational g-factors)
  Bernd Schimmelpfennig,    Forschungszentrum Karlsruhe,  Germany     (AMFI module)
  Anna K. Schnack-Petersen, University of Copenhagen,     Denmark     (RPA(D) and HRPA(D) properties in AOSOPPA)
  Kristian Sneskov,         Aarhus University,            Denmark     (Polarizable embedding, QM/MM)
  Arnfinn H. Steindal,      UiT The Arctic U. of Norway,  Norway      (parallel QM/MM, polarizable embedding)
  Casper Steinmann,         Aalborg University,           Denmark     (QFIT, polarizable embedding)
  K. O. Sylvester-Hvid,     University of Copenhagen,     Denmark     (MC-SCRF)
  Peter R. Taylor,          VLSCI/Univ. of Melbourne,     Australia   (Symmetry handling ABACUS, integral transformation)
  Andrew M. Teale,          University of Nottingham,     England     (DFT-AC, DFT-D)
  David P. Tew,             University of Bristol,        England     (CCSD(R12))
  Julien Toulouse,          Sorbonne Univ.,               France      (MC-srDFT)
  Olav Vahtras,             KTH Stockholm,                Sweden      (Triplet response, spin-orbit, ESR, TDDFT, open-shell DFT)
  Lucas Visscher,           Vrije Universiteit Amsterdam, Netherlands (Frozen density embedding)
  David J. Wilson,          La Trobe University,          Australia   (DFT Hessian and DFT magnetizabilities)
  Hans Agren,               KTH Stockholm,                Sweden      (SIRIUS module, RESPONS, MC-SCRF solvation)
 --------------------------------------------------------------------------------

     Date and time (Linux)  : Thu May 29 16:46:28 2025
     Host name              : xm009                                   

 * Work memory size             :   131072000 = 1000.00 megabytes.

 * Directories for basis set searches:
   1) /gpfs/projects/rjh/adrian/summer2025/beta_projects/raw_data/NLO/dalton/hf/n11/dipole
   2) /gpfs/projects/rjh/adrian/dalton/build/basis


Compilation information
-----------------------

 Who compiled             | ahurtado
 Host                     | milan2
 System                   | Linux-5.14.0-427.42.1.el9_4.x86_64
 CMake generator          | Unix Makefiles
 Processor                | x86_64
 64-bit integers          | OFF
 MPI                      | ON
 Fortran compiler         | /gpfs/software/openmpi/milan/gcc13.2/4.1.6/bin/mpi
                          | f90
 Fortran compiler version | GNU Fortran (GCC) 13.2.0
 C compiler               | /gpfs/software/openmpi/milan/gcc13.2/4.1.6/bin/mpi
                          | cc
 C compiler version       | gcc (GCC) 13.2.0
 C++ compiler             | /gpfs/software/openmpi/milan/gcc13.2/4.1.6/bin/mpi
                          | cxx
 C++ compiler version     | unknown
 BLAS                     | /gpfs/software/intel/oneAPI/2024_2/mkl/2024.2/lib/
                          | intel64/libmkl_gf_lp64.so;/gpfs/software/intel/one
                          | API/2024_2/mkl/2024.2/lib/intel64/libmkl_sequentia
                          | l.so;/gpfs/software/intel/oneAPI/2024_2/mkl/2024.2
                          | /lib/intel64/libmkl_core.so;/usr/lib64/libpthread.
                          | a;/usr/lib64/libm.so
 LAPACK                   | /gpfs/software/intel/oneAPI/2024_2/mkl/2024.2/lib/
                          | intel64/libmkl_lapack95_lp64.a;/gpfs/software/inte
                          | l/oneAPI/2024_2/mkl/2024.2/lib/intel64/libmkl_gf_l
                          | p64.so
 Static linking           | OFF
 Last Git revision        | 66052b3af5ea7225e31178bf9a8b031913c72190
 Git branch               | (HEAD detached at Dalton2020.0)
 Configuration time       | 2025-04-10 16:02:31.569498

 * MPI parallel run using 576 processes.


   Content of the .dal input file
 ----------------------------------

**DALTON INPUT
.RUN RESPONSE
.DIRECT
**WAVE FUNCTIONS
.HF
**PROPERTIES
**RESPONSE
*QUADRA
.DIPLEN
.FREQUENCIES
2
0.0 0.0164
**END OF DALTON INPUT


   Content of the .mol file
 ----------------------------

BASIS
d-aug-cc-pVDZ
blah
blah
Atomtype=4 Angstrom Charge=0 Nosymmetry
Charge=6 Atoms=22
C_a -1.8122620012835433 -0.9657169975135246 0.0
C_b -0.47990300170099354 -0.6199950004480934 0.0
C_c 0.0 0.7347809988410869 0.0
C_d 1.33440499976634 1.0741329987742174 0.0
C_e 1.822035999616516 2.426000999954059 0.0
C_f 3.1583140009529345 2.7579619976610776 0.0
C_g 3.6555709988538028 4.106602001980516 0.0
C_h 4.993888999504442 4.428659998534144 0.0
C_i 5.504787000539432 5.773048000464584 0.0
C_j 6.845650999753135 6.080100002436257 0.0
C_k 7.378550998559059 7.417604001534356 0.0
C_l 8.72333499967156 7.6973089984010015 0.0
C_m 9.297041001506793 9.019440997499384 0.0
C_n 10.650860999830723 9.227377001932195 0.0
C_o -7.171002997440654 -6.1446729997378835 0.0
C_p -5.8529999987804215 -5.769760000200263 0.0
C_q -5.403531999922006 -4.399889998867221 0.0
C_r -4.078087002227869 -4.038480998483878 0.0
C_s -3.6145510018522695 -2.6759249988010225 0.0
C_t -2.2848440003198527 -2.323654999973166 0.0
C_u -8.882541000978819 -7.916753998612093 0.0
C_v -7.585979998306329 -7.530289002356054 0.0
Charge=7 Atoms=2
N_a 11.282005002092449 10.441887998568792 0.0
N_b -9.247999000789601 -9.328862998985626 0.0
Charge=8 Atoms=2
O_a -10.462299998741914 -9.564712000592682 0.0
O_b -8.352355998769958 -10.176287997998127 0.0
Charge=1 Atoms=24
H_a -2.5644380022665603 -0.16330899797727702 0.0
H_b 0.27023400011273024 -1.4248459994951204 0.0
H_c -0.7479299994635872 1.5412280016472666 0.0
H_d 2.080228000789063 0.26520700182338897 0.0
H_e 1.0786390009325657 3.23667100094632 0.0
H_f 3.899079999338471 1.9442640023351856 0.0
H_g 2.9178589985700296 4.922449001834255 0.0
H_h 5.727755998175488 3.608514000063327 0.0
H_i 4.7752170001956085 6.596111998494022 0.0
H_j 7.568522997762397 5.24983899854614 0.0
H_k 6.662887997566072 8.252460999459268 0.0
H_l 9.424485998300522 6.848155997665916 0.0
H_m 8.61886099820631 9.883707997885121 0.0
H_n 11.32836600055659 8.364257998587286 0.0
H_o 10.750808001385902 11.301844998743242 0.0
H_p 12.288097998525666 10.505195997748313 0.0
H_q -7.948397001899416 -5.3685600010118515 0.0
H_r -5.083876002228872 -6.5560159978200385 0.0
H_s -6.168483000242109 -3.610195000266058 0.0
H_t -3.317323000168205 -4.833130000669942 0.0
H_u -1.5302499981574886 -3.124286001268895 0.0
H_v -4.371808998512132 -1.878615002552244 0.0
H_w -9.751719998862473 -7.256207000195811 0.0
H_x -6.820033001807389 -8.315199000698087 0.0


       *******************************************************************
       *********** Output from DALTON general input processing ***********
       *******************************************************************

 --------------------------------------------------------------------------------
   Overall default print level:    0
   Print level for DALTON.STAT:    1

    Parallel calculation using MPI
    AO-direct calculation (in sections where implemented)
    HERMIT 1- and 2-electron integral sections will be executed
    "Old" integral transformation used (limited to max 255 basis functions)
    Wave function sections will be executed (SIRIUS module)
    Dynamic molecular response properties section will be executed (RESPONSE module)
 --------------------------------------------------------------------------------


   ****************************************************************************
   *************** Output of molecule and basis set information ***************
   ****************************************************************************


    The two title cards from your ".mol" input:
    ------------------------------------------------------------------------
 1: blah                                                                    
 2: blah                                                                    
    ------------------------------------------------------------------------

  Coordinates are entered in Angstrom and converted to atomic units.
          - Conversion factor : 1 bohr = 0.52917721 A

  Atomic type no.    1
  --------------------
  Nuclear charge:   6.00000
  Number of symmetry independent centers:   22
  Number of basis sets to read;    2
  Basis set file used for this atomic type with Z =   6 :
     "/gpfs/projects/rjh/adrian/dalton/build/basis/aug-cc-pVDZ"

  Atomic type no.    2
  --------------------
  Nuclear charge:   7.00000
  Number of symmetry independent centers:    2
  Number of basis sets to read;    2
  Basis set file used for this atomic type with Z =   7 :
     "/gpfs/projects/rjh/adrian/dalton/build/basis/aug-cc-pVDZ"

  Atomic type no.    3
  --------------------
  Nuclear charge:   8.00000
  Number of symmetry independent centers:    2
  Number of basis sets to read;    2
  Basis set file used for this atomic type with Z =   8 :
     "/gpfs/projects/rjh/adrian/dalton/build/basis/aug-cc-pVDZ"

  Atomic type no.    4
  --------------------
  Nuclear charge:   1.00000
  Number of symmetry independent centers:   24
  Number of basis sets to read;    2
  Basis set file used for this atomic type with Z =   1 :
     "/gpfs/projects/rjh/adrian/dalton/build/basis/aug-cc-pVDZ"


                         SYMGRP: Point group information
                         -------------------------------

@    Point group: C1 


                                 Isotopic Masses
                                 ---------------

                           C_a        12.000000
                           C_b        12.000000
                           C_c        12.000000
                           C_d        12.000000
                           C_e        12.000000
                           C_f        12.000000
                           C_g        12.000000
                           C_h        12.000000
                           C_i        12.000000
                           C_j        12.000000
                           C_k        12.000000
                           C_l        12.000000
                           C_m        12.000000
                           C_n        12.000000
                           C_o        12.000000
                           C_p        12.000000
                           C_q        12.000000
                           C_r        12.000000
                           C_s        12.000000
                           C_t        12.000000
                           C_u        12.000000
                           C_v        12.000000
                           N_a        14.003074
                           N_b        14.003074
                           O_a        15.994915
                           O_b        15.994915
                           H_a         1.007825
                           H_b         1.007825
                           H_c         1.007825
                           H_d         1.007825
                           H_e         1.007825
                           H_f         1.007825
                           H_g         1.007825
                           H_h         1.007825
                           H_i         1.007825
                           H_j         1.007825
                           H_k         1.007825
                           H_l         1.007825
                           H_m         1.007825
                           H_n         1.007825
                           H_o         1.007825
                           H_p         1.007825
                           H_q         1.007825
                           H_r         1.007825
                           H_s         1.007825
                           H_t         1.007825
                           H_u         1.007825
                           H_v         1.007825
                           H_w         1.007825
                           H_x         1.007825

                       Total mass:   348.183778 amu
                       Natural abundance:  77.170 %

 Center-of-mass coordinates (a.u.):   -0.209926   -0.214777    0.000000
 Center-of-mass coordinates (Angs):   -0.111088   -0.113655    0.000000


  Atoms and basis sets
  --------------------

  Number of atom types :    4
  Total number of atoms:   50

  Basis set used is "d-aug-cc-pVDZ" from the basis set library.

  label    atoms   charge   prim   cont     basis
  ----------------------------------------------------------------------
  C_         22    6.0000    44    32      [11s6p3d|5s4p3d]                                   
  N_          2    7.0000    44    32      [11s6p3d|5s4p3d]                                   
  O_          2    8.0000    44    32      [11s6p3d|5s4p3d]                                   
  H_         24    1.0000    15    13      [6s3p|4s3p]                                        
  ----------------------------------------------------------------------
  total:     50  186.0000  1504  1144
  ----------------------------------------------------------------------
  Spherical harmonic basis used.

  Threshold for neglecting AO integrals:  1.00D-12

  Max    interatomic separation is   30.3378 Angstrom (   57.3301 Bohr)
  between atoms   42 and   25, "H_p   " and "O_a   ".

  Min HX interatomic separation is    1.0081 Angstrom (    1.9050 Bohr)

  Min YX interatomic separation is    1.2330 Angstrom (    2.3300 Bohr)


  Bond distances (Angstrom):
  --------------------------

                  atom 1     atom 2       distance
                  ------     ------       --------
  bond distance:  C_b        C_a          1.376483
  bond distance:  C_c        C_b          1.437263
  bond distance:  C_d        C_c          1.376879
  bond distance:  C_e        C_d          1.437126
  bond distance:  C_f        C_e          1.376894
  bond distance:  C_g        C_f          1.437392
  bond distance:  C_h        C_g          1.376523
  bond distance:  C_i        C_h          1.438192
  bond distance:  C_j        C_i          1.375572
  bond distance:  C_k        C_j          1.439757
  bond distance:  C_l        C_k          1.373564
  bond distance:  C_m        C_l          1.441240
  bond distance:  C_n        C_m          1.369696
  bond distance:  C_p        C_o          1.370289
  bond distance:  C_q        C_p          1.441723
  bond distance:  C_r        C_q          1.373834
  bond distance:  C_s        C_r          1.439244
  bond distance:  C_t        C_a          1.437821
  bond distance:  C_t        C_s          1.375578
  bond distance:  C_v        C_o          1.446422
  bond distance:  C_v        C_u          1.352932
  bond distance:  N_a        C_n          1.368715
  bond distance:  N_b        C_u          1.458633
  bond distance:  O_a        N_b          1.236993
  bond distance:  O_b        N_b          1.233007
  bond distance:  H_a        C_a          1.099831
  bond distance:  H_b        C_b          1.100223
  bond distance:  H_c        C_c          1.099889
  bond distance:  H_d        C_d          1.100279
  bond distance:  H_e        C_e          1.099920
  bond distance:  H_f        C_f          1.100381
  bond distance:  H_g        C_g          1.099921
  bond distance:  H_h        C_h          1.100545
  bond distance:  H_i        C_i          1.099867
  bond distance:  H_j        C_j          1.100853
  bond distance:  H_k        C_k          1.099618
  bond distance:  H_l        C_l          1.101215
  bond distance:  H_m        C_m          1.098583
  bond distance:  H_n        C_n          1.097264
  bond distance:  H_o        N_a          1.010790
  bond distance:  H_p        N_a          1.008083
  bond distance:  H_q        C_o          1.098496
  bond distance:  H_r        C_p          1.099886
  bond distance:  H_s        C_q          1.099440
  bond distance:  H_t        C_r          1.100104
  bond distance:  H_u        C_t          1.100192
  bond distance:  H_v        C_s          1.099610
  bond distance:  H_w        C_u          1.091693
  bond distance:  H_x        C_v          1.096703


  Bond angles (degrees):
  ----------------------

                  atom 1     atom 2     atom 3         angle
                  ------     ------     ------         -----
  bond angle:     C_b        C_a        C_t          123.735
  bond angle:     C_b        C_a        H_a          118.603
  bond angle:     C_t        C_a        H_a          117.662
  bond angle:     C_a        C_b        C_c          124.052
  bond angle:     C_a        C_b        H_b          118.438
  bond angle:     C_c        C_b        H_b          117.509
  bond angle:     C_b        C_c        C_d          123.774
  bond angle:     C_b        C_c        H_c          117.650
  bond angle:     C_d        C_c        H_c          118.576
  bond angle:     C_c        C_d        C_e          124.103
  bond angle:     C_c        C_d        H_d          118.407
  bond angle:     C_e        C_d        H_d          117.489
  bond angle:     C_d        C_e        C_f          123.786
  bond angle:     C_d        C_e        H_e          117.644
  bond angle:     C_f        C_e        H_e          118.570
  bond angle:     C_e        C_f        C_g          124.191
  bond angle:     C_e        C_f        H_f          118.363
  bond angle:     C_g        C_f        H_f          117.447
  bond angle:     C_f        C_g        C_h          123.770
  bond angle:     C_f        C_g        H_g          117.640
  bond angle:     C_h        C_g        H_g          118.590
  bond angle:     C_g        C_h        C_i          124.339
  bond angle:     C_g        C_h        H_h          118.292
  bond angle:     C_i        C_h        H_h          117.370
  bond angle:     C_h        C_i        C_j          123.706
  bond angle:     C_h        C_i        H_i          117.638
  bond angle:     C_j        C_i        H_i          118.656
  bond angle:     C_i        C_j        C_k          124.622
  bond angle:     C_i        C_j        H_j          118.147
  bond angle:     C_k        C_j        H_j          117.232
  bond angle:     C_j        C_k        C_l          123.473
  bond angle:     C_j        C_k        H_k          117.672
  bond angle:     C_l        C_k        H_k          118.855
  bond angle:     C_k        C_l        C_m          125.207
  bond angle:     C_k        C_l        H_l          117.797
  bond angle:     C_m        C_l        H_l          116.996
  bond angle:     C_l        C_m        C_n          122.189
  bond angle:     C_l        C_m        H_m          118.422
  bond angle:     C_n        C_m        H_m          119.389
  bond angle:     C_m        C_n        N_a          126.191
  bond angle:     C_m        C_n        H_n          119.398
  bond angle:     N_a        C_n        H_n          114.410
  bond angle:     C_p        C_o        C_v          122.551
  bond angle:     C_p        C_o        H_q          119.169
  bond angle:     C_v        C_o        H_q          118.280
  bond angle:     C_o        C_p        C_q          124.044
  bond angle:     C_o        C_p        H_r          118.490
  bond angle:     C_q        C_p        H_r          117.466
  bond angle:     C_p        C_q        C_r          123.417
  bond angle:     C_p        C_q        H_s          117.747
  bond angle:     C_r        C_q        H_s          118.836
  bond angle:     C_q        C_r        C_s          124.040
  bond angle:     C_q        C_r        H_t          118.500
  bond angle:     C_s        C_r        H_t          117.460
  bond angle:     C_r        C_s        C_t          123.626
  bond angle:     C_r        C_s        H_v          117.688
  bond angle:     C_t        C_s        H_v          118.686
  bond angle:     C_a        C_t        C_s          124.027
  bond angle:     C_a        C_t        H_u          117.507
  bond angle:     C_s        C_t        H_u          118.466
  bond angle:     C_v        C_u        N_b          121.108
  bond angle:     C_v        C_u        H_w          126.169
  bond angle:     N_b        C_u        H_w          112.724
  bond angle:     C_o        C_v        C_u          123.270
  bond angle:     C_o        C_v        H_x          119.028
  bond angle:     C_u        C_v        H_x          117.702
  bond angle:     C_n        N_a        H_o          120.837
  bond angle:     C_n        N_a        H_p          121.060
  bond angle:     H_o        N_a        H_p          118.103
  bond angle:     C_u        N_b        O_a          115.501
  bond angle:     C_u        N_b        O_b          118.905
  bond angle:     O_a        N_b        O_b          125.593




 Principal moments of inertia (u*A**2) and principal axes
 --------------------------------------------------------

   IA     132.140063          0.723824    0.689984    0.000000
   IB   30250.886736         -0.689984    0.723824    0.000000
   IC   30383.026799          0.000000    0.000000    1.000000


 Rotational constants
 --------------------

@    The molecule is planar.

               A                   B                   C

           3824.5706             16.7063             16.6336 MHz
            0.127574            0.000557            0.000555 cm-1


@  Nuclear repulsion energy : 1581.530184833914 Hartree


                     .---------------------------------------.
                     | Starting in Integral Section (HERMIT) |
                     `---------------------------------------'



 ***************************************************************************************
 ****************** Output from **INTEGRALS input processing (HERMIT) ******************
 ***************************************************************************************


 - Using defaults, no **INTEGRALS input found

 Default print level:        1

 Calculation of one-electron Hamiltonian integrals.

 Center of mass  (bohr):     -0.209925642482     -0.214776861006      0.000000000000
 Operator center (bohr):      0.000000000000      0.000000000000      0.000000000000
 Gauge origin    (bohr):      0.000000000000      0.000000000000      0.000000000000
 Dipole origin   (bohr):      0.000000000000      0.000000000000      0.000000000000


     ************************************************************************
     ************************** Output from HERINT **************************
     ************************************************************************



                      Nuclear contribution to dipole moments
                      --------------------------------------

                 au               Debye          C m (/(10**-30)

      x      0.00001132         0.00002877         0.00009597
      y     -0.00001130        -0.00002872        -0.00009581
      z      0.00000000         0.00000000         0.00000000


  Time used in ONEDRV     is       3.00 seconds
  Time used in HUCKEL     is       0.66 seconds
  Time used in OVERLAP    is       0.35 seconds
  Time used in POPOVLP    is       0.69 seconds
  Time used in R2         is       0.43 seconds
  Time used in R4         is       0.50 seconds
  Time used in DIPLEN     is       0.46 seconds
  Time used in QUADRUP    is       0.88 seconds
  Time used in KINENE     is       0.62 seconds
  Time used in GABGEN     is       2.63 seconds
  Total CPU  time used in HERMIT:  10.22 seconds
  Total wall time used in HERMIT:  10.32 seconds


                        .----------------------------------.
                        | End of Integral Section (HERMIT) |
                        `----------------------------------'



                   .--------------------------------------------.
                   | Starting in Wave Function Section (SIRIUS) |
                   `--------------------------------------------'



@ Primary orbitals are deleted during canonical orthonormalization
@   because of detected numerical linear dependence or too large coefficients.
@ Eigenvalue threshold for num. lin. dep. =  1.00D-06

@  86 MO components are deleted in symmetry    1
 Overlap eigenvalues of the deleted orbitals:
  9.85D-07  9.59D-07  8.57D-07  8.50D-07  8.14D-07
  7.92D-07  7.55D-07  7.17D-07  7.04D-07  6.80D-07
  6.46D-07  5.35D-07  5.22D-07  4.58D-07  4.46D-07
  4.03D-07  3.61D-07  3.48D-07  3.20D-07  2.94D-07
  2.65D-07  2.56D-07  2.41D-07  2.36D-07  2.09D-07
  2.00D-07  1.88D-07  1.80D-07  1.70D-07  1.44D-07
  1.34D-07  1.30D-07  1.18D-07  1.16D-07  1.09D-07
  1.03D-07  9.80D-08  8.66D-08  8.57D-08  8.32D-08
  7.35D-08  6.37D-08  5.97D-08  5.14D-08  4.77D-08
  4.50D-08  3.74D-08  3.13D-08  2.81D-08  2.75D-08
  2.54D-08  2.39D-08  2.05D-08  1.96D-08  1.91D-08
  1.66D-08  1.60D-08  1.52D-08  1.42D-08  1.33D-08
  9.52D-09  9.18D-09  8.97D-09  8.70D-09  8.05D-09
  7.49D-09  6.90D-09  5.45D-09  4.84D-09  4.16D-09
  3.75D-09  3.52D-09  3.35D-09  3.14D-09  3.04D-09
  2.81D-09  2.54D-09  2.03D-09  1.30D-09  1.13D-09
  1.01D-09  8.22D-10  2.58D-10  1.98D-10  1.70D-10
  1.34D-10

 Max MO coeff. of last deleted MO & limit:  2.43D+02  1.00D+03

WARNING: Orbitals have been deleted because of numerical
   linear dependence although not requested in input.

 *** Output from Huckel module :

     Using EWMO model:          T
     Using EHT  model:          F
     Number of Huckel orbitals each symmetry:  154

 EWMO - Energy Weighted Maximum Overlap - is a Huckel type method,
        which normally is better than Extended Huckel Theory.
 Reference: Linderberg and Ohrn, Propagators in Quantum Chemistry (Wiley, 1973)

 Huckel EWMO eigenvalues for symmetry :  1
          -20.684752     -20.683496     -15.677078     -15.674963     -11.359374
          -11.359347     -11.359080     -11.358962     -11.358805     -11.358177
          -11.357067     -11.355666     -11.354101     -11.352519     -11.351100
          -11.348548     -11.347673     -11.346826     -11.346154     -11.345689
          -11.345479     -11.345449     -11.345343     -11.345315     -11.345201
          -11.345199      -1.964023      -1.792553      -1.788416      -1.777016
           -1.753857      -1.715146      -1.659142      -1.586856      -1.502143
           -1.445579      -1.402688      -1.305298      -1.210238      -1.204574
           -1.181381      -1.138478      -1.110079      -1.082419      -1.029091
           -1.004500      -0.962900      -0.921724      -0.897947      -0.852013
           -0.851456      -0.837210      -0.815275      -0.781973      -0.760999
           -0.749335      -0.739750      -0.729381      -0.693878      -0.690068
           -0.669188      -0.654194      -0.645832      -0.629887      -0.604027
           -0.599317      -0.596036      -0.585320      -0.556702      -0.554676
           -0.551379      -0.536644      -0.521781      -0.512788      -0.505246
           -0.501020      -0.494401      -0.493830      -0.489009      -0.487602
           -0.480786      -0.480021      -0.475253      -0.474908      -0.469443
           -0.461643      -0.435957      -0.421846      -0.404684      -0.386742
           -0.379984      -0.364149      -0.356816      -0.335710      -0.302570
           -0.279750      -0.259927      -0.243265      -0.229601      -0.229166
           -0.218679      -0.210184      -0.203785      -0.200939      -0.199174
           -0.196080      -0.194301      -0.190582      -0.166681      -0.142726
           -0.138983      -0.134902      -0.132334      -0.131510      -0.131082
           -0.130349      -0.129767      -0.129600      -0.129276      -0.129072
           -0.128577      -0.127914      -0.127154      -0.126973      -0.126563
           -0.126448      -0.125539      -0.124985      -0.124687      -0.124034
           -0.123697      -0.123194      -0.112462      -0.111162      -0.108141
           -0.106084      -0.102673      -0.101291      -0.097465      -0.096447
           -0.093387      -0.092388      -0.090411      -0.089125      -0.088105
           -0.086854      -0.086313      -0.085269      -0.085053      -0.083702
           -0.082341      -0.081033      -0.079936      -0.079338

 **********************************************************************
 *SIRIUS* a direct, restricted step, second order MCSCF program       *
 **********************************************************************

 
     Date and time (Linux)  : Thu May 29 16:47:59 2025
     Host name              : xm009                                   

 Title lines from ".mol" input file:
     blah                                                                    
     blah                                                                    

 Print level on unit LUPRI =   2 is   0
 Print level on unit LUW4  =   2 is   5

@    Restricted, closed shell Hartree-Fock calculation.

@    Time-dependent Hartree-Fock calculation (random phase approximation).
 Fock matrices are calculated directly and in parallel without use of integrals on disk.

 Initial molecular orbitals are obtained according to
 ".MOSTART EWMO  " input option

     Wave function specification
     ============================
@    Wave function type        --- HF ---
@    Number of closed shell electrons         186
@    Number of electrons in active shells       0
@    Total charge of the molecule               0

@    Spin multiplicity and 2 M_S                1         0
@    Total number of symmetries                 1 (point group: C1 )
@    Reference state symmetry                   1 (irrep name : A  )

     Orbital specifications
     ======================
@    Abelian symmetry species          All |    1
@                                          |  A  
                                       --- |  ---
@    Occupied SCF orbitals              93 |   93
@    Secondary orbitals                965 |  965
@    Total number of orbitals         1058 | 1058
@    Number of basis functions        1144 | 1144

     Optimization information
     ========================
@    Number of configurations                 1
@    Number of orbital rotations          89745
     ------------------------------------------
@    Total number of variables            89746

     Maximum number of Fock   iterations      0
     Maximum number of DIIS   iterations     60
     Maximum number of QC-SCF iterations     60
     Threshold for SCF convergence     1.00D-05

    INFORMATION: Switched to "new" integral transformation (from 1988 ;-) )
    because more than 255 basis functions.


 ***********************************************
 ***** DIIS acceleration of SCF iterations *****
 ***********************************************

 C1-DIIS algorithm; max error vectors =    8

 Iter      Total energy        Error norm    Delta(E)  DIIS dim.
 -----------------------------------------------------------------------------
   1  Screening settings (-IFTHRS, JTDIIS, DIFDEN, times)  -10    1    T  1.72D+01  1.74D+01
@  1    -1101.48698082        7.44583D+00   -1.10D+03    1
      Virial theorem: -V/T =      2.012056
@    MULPOP   C_a     0.40; C_b     0.39; C_c     0.45; C_d     0.50; C_e     0.36; C_f     0.38; C_g     0.34; C_h     0.57; C_i     0.38; C_j     0.61; 
@             C_k     0.37; C_l     0.78; C_m     0.06; C_n     1.02; C_o     0.52; C_p     0.57; C_q     0.51; C_r     0.54; C_s     0.33; C_t     0.48; 
@             C_u     0.92; C_v     0.32; N_a    -0.32; N_b     0.77; O_a    -1.15; O_b    -1.22; H_a    -0.42; H_b    -0.40; H_c    -0.36; H_d    -0.42; 
@    MULPOP    dipole moment & components:     32.5203;       22.3937     23.5816      0.0000
   1  Level shift: doubly occupied orbital energies shifted by -2.00D-01
 -----------------------------------------------------------------------------
   2  Screening settings (-IFTHRS, JTDIIS, DIFDEN, times)  -10    2    T  1.35D+01  1.35D+01
@  2    -1105.00422260        2.86476D+00   -3.52D+00    2
      Virial theorem: -V/T =      2.001119
@    MULPOP   C_a     0.89; C_b     0.53; C_c     0.69; C_d     0.78; C_e     0.84; C_f     0.63; C_g     0.67; C_h     0.98; C_i     0.72; C_j     1.11; 
@             C_k     0.44; C_l     0.84; C_m     0.87; C_n    -0.35; C_o     0.73; C_p     0.59; C_q     0.97; C_r     0.78; C_s     0.93; C_t     0.64; 
@             C_u     0.32; C_v     0.03; N_a     0.29; N_b     0.56; O_a    -0.43; O_b    -0.67; H_a    -0.61; H_b    -0.63; H_c    -0.64; H_d    -0.72; 
@    MULPOP    dipole moment & components:     11.2253;        5.5409      9.7625      0.0000
   2  Level shift: doubly occupied orbital energies shifted by -1.00D-01
 -----------------------------------------------------------------------------
   3  Screening settings (-IFTHRS, JTDIIS, DIFDEN, times)  -10    3    T  1.33D+01  1.34D+01
@  3    -1105.47031334        9.65995D-01   -4.66D-01    3
      Virial theorem: -V/T =      2.001261
@    MULPOP   C_a     0.89; C_b     0.54; C_c     0.65; C_d     0.71; C_e     0.86; C_f     0.62; C_g     0.67; C_h     0.93; C_i     0.73; C_j     1.12; 
@             C_k     0.20; C_l     0.66; C_m     0.74; C_n    -0.30; C_o     0.63; C_p     0.45; C_q     0.95; C_r     0.79; C_s     0.96; C_t     0.58; 
@             C_u     0.66; C_v    -0.12; N_a     0.21; N_b     0.63; O_a    -0.73; O_b    -0.80; H_a    -0.56; H_b    -0.59; H_c    -0.62; H_d    -0.68; 
@    MULPOP    dipole moment & components:      9.5019;        3.6624      8.7677      0.0000
   3  Level shift: doubly occupied orbital energies shifted by -5.00D-02
 -----------------------------------------------------------------------------
   4  Screening settings (-IFTHRS, JTDIIS, DIFDEN, times)  -10    4    T  1.31D+01  1.32D+01
@  4    -1105.53753576        2.96614D-01   -6.72D-02    4
      Virial theorem: -V/T =      2.002724
@    MULPOP   C_a     0.88; C_b     0.51; C_c     0.63; C_d     0.68; C_e     0.83; C_f     0.60; C_g     0.67; C_h     0.89; C_i     0.70; C_j     1.06; 
@             C_k     0.15; C_l     0.55; C_m     0.74; C_n    -0.30; C_o     0.61; C_p     0.41; C_q     0.93; C_r     0.77; C_s     0.96; C_t     0.56; 
@             C_u     0.55; C_v    -0.13; N_a     0.21; N_b     0.43; O_a    -0.58; O_b    -0.75; H_a    -0.52; H_b    -0.56; H_c    -0.59; H_d    -0.65; 
@    MULPOP    dipole moment & components:      8.4625;        2.6126      8.0491      0.0000
   4  Level shift: doubly occupied orbital energies shifted by -2.50D-02
 -----------------------------------------------------------------------------
   5  Screening settings (-IFTHRS, JTDIIS, DIFDEN, times)  -10    5    T  1.29D+01  1.30D+01
@  5    -1105.55157896        1.24842D-01   -1.40D-02    5
      Virial theorem: -V/T =      2.002192
@    MULPOP   C_a     0.87; C_b     0.50; C_c     0.63; C_d     0.67; C_e     0.83; C_f     0.57; C_g     0.66; C_h     0.88; C_i     0.69; C_j     1.04; 
@             C_k     0.15; C_l     0.52; C_m     0.75; C_n    -0.34; C_o     0.62; C_p     0.36; C_q     0.94; C_r     0.74; C_s     0.95; C_t     0.54; 
@             C_u     0.60; C_v    -0.21; N_a     0.20; N_b     0.43; O_a    -0.61; O_b    -0.73; H_a    -0.51; H_b    -0.54; H_c    -0.57; H_d    -0.63; 
@    MULPOP    dipole moment & components:      7.6002;        1.6443      7.4202      0.0000
   5  Level shift: doubly occupied orbital energies shifted by -1.25D-02
 -----------------------------------------------------------------------------
   6  Screening settings (-IFTHRS, JTDIIS, DIFDEN, times)  -14    6    F  1.41D+01  1.43D+01
@  6    -1105.55561590        6.61213D-02   -4.04D-03    6
      Virial theorem: -V/T =      2.002060
@    MULPOP   C_a     0.87; C_b     0.49; C_c     0.64; C_d     0.66; C_e     0.83; C_f     0.56; C_g     0.66; C_h     0.88; C_i     0.68; C_j     1.04; 
@             C_k     0.14; C_l     0.51; C_m     0.75; C_n    -0.34; C_o     0.63; C_p     0.34; C_q     0.96; C_r     0.72; C_s     0.96; C_t     0.53; 
@             C_u     0.60; C_v    -0.21; N_a     0.19; N_b     0.41; O_a    -0.59; O_b    -0.73; H_a    -0.50; H_b    -0.53; H_c    -0.56; H_d    -0.62; 
@    MULPOP    dipole moment & components:      7.1845;        1.0998      7.0998      0.0000
   6  Level shift: doubly occupied orbital energies shifted by -1.25D-02
 -----------------------------------------------------------------------------
   7  Screening settings (-IFTHRS, JTDIIS, DIFDEN, times)  -14    7    T  1.40D+01  1.41D+01
@  7    -1105.55706432        3.08096D-02   -1.45D-03    7
      Virial theorem: -V/T =      2.002078
@    MULPOP   C_a     0.87; C_b     0.48; C_c     0.63; C_d     0.65; C_e     0.82; C_f     0.55; C_g     0.66; C_h     0.87; C_i     0.67; C_j     1.02; 
@             C_k     0.14; C_l     0.53; C_m     0.76; C_n    -0.32; C_o     0.66; C_p     0.34; C_q     0.95; C_r     0.71; C_s     0.96; C_t     0.52; 
@             C_u     0.62; C_v    -0.22; N_a     0.18; N_b     0.40; O_a    -0.60; O_b    -0.71; H_a    -0.50; H_b    -0.54; H_c    -0.57; H_d    -0.62; 
@    MULPOP    dipole moment & components:      6.9467;        0.9081      6.8871      0.0000
 -----------------------------------------------------------------------------
   8  Screening settings (-IFTHRS, JTDIIS, DIFDEN, times)  -14    8    T  1.39D+01  1.41D+01
@  8    -1105.55737608        1.37491D-02   -3.12D-04    8
      Virial theorem: -V/T =      2.002076
@    MULPOP   C_a     0.87; C_b     0.48; C_c     0.63; C_d     0.65; C_e     0.82; C_f     0.55; C_g     0.66; C_h     0.87; C_i     0.67; C_j     1.02; 
@             C_k     0.14; C_l     0.55; C_m     0.77; C_n    -0.31; C_o     0.68; C_p     0.34; C_q     0.96; C_r     0.70; C_s     0.96; C_t     0.51; 
@             C_u     0.64; C_v    -0.23; N_a     0.18; N_b     0.40; O_a    -0.59; O_b    -0.72; H_a    -0.50; H_b    -0.54; H_c    -0.57; H_d    -0.63; 
@    MULPOP    dipole moment & components:      6.7592;        0.7259      6.7201      0.0000
 -----------------------------------------------------------------------------
   9  Screening settings (-IFTHRS, JTDIIS, DIFDEN, times)  -14    9    T  1.39D+01  1.40D+01
@  9    -1105.55742542        5.57350D-03   -4.93D-05    8
      Virial theorem: -V/T =      2.002069
@    MULPOP   C_a     0.87; C_b     0.48; C_c     0.63; C_d     0.65; C_e     0.82; C_f     0.55; C_g     0.66; C_h     0.87; C_i     0.66; C_j     1.03; 
@             C_k     0.14; C_l     0.55; C_m     0.76; C_n    -0.31; C_o     0.69; C_p     0.34; C_q     0.96; C_r     0.70; C_s     0.96; C_t     0.52; 
@             C_u     0.63; C_v    -0.22; N_a     0.18; N_b     0.40; O_a    -0.60; O_b    -0.71; H_a    -0.50; H_b    -0.54; H_c    -0.57; H_d    -0.63; 
@    MULPOP    dipole moment & components:      6.6458;        0.6662      6.6123      0.0000
 -----------------------------------------------------------------------------
  10  Screening settings (-IFTHRS, JTDIIS, DIFDEN, times)  -14   10    T  1.39D+01  1.40D+01
@ 10    -1105.55743889        3.37400D-03   -1.35D-05    8
      Virial theorem: -V/T =      2.002068
@    MULPOP   C_a     0.87; C_b     0.49; C_c     0.63; C_d     0.65; C_e     0.82; C_f     0.56; C_g     0.65; C_h     0.87; C_i     0.66; C_j     1.03; 
@             C_k     0.14; C_l     0.55; C_m     0.76; C_n    -0.32; C_o     0.68; C_p     0.34; C_q     0.96; C_r     0.70; C_s     0.96; C_t     0.52; 
@             C_u     0.63; C_v    -0.22; N_a     0.18; N_b     0.40; O_a    -0.59; O_b    -0.71; H_a    -0.50; H_b    -0.54; H_c    -0.57; H_d    -0.63; 
@    MULPOP    dipole moment & components:      6.5631;        0.6226      6.5335      0.0000
 -----------------------------------------------------------------------------
  11  Screening settings (-IFTHRS, JTDIIS, DIFDEN, times)  -14   11    T  1.37D+01  1.38D+01
@ 11    -1105.55744479        2.02114D-03   -5.90D-06    8
      Virial theorem: -V/T =      2.002069
@    MULPOP   C_a     0.87; C_b     0.49; C_c     0.63; C_d     0.66; C_e     0.81; C_f     0.56; C_g     0.65; C_h     0.87; C_i     0.66; C_j     1.04; 
@             C_k     0.14; C_l     0.55; C_m     0.76; C_n    -0.31; C_o     0.68; C_p     0.34; C_q     0.96; C_r     0.71; C_s     0.96; C_t     0.52; 
@             C_u     0.63; C_v    -0.22; N_a     0.18; N_b     0.40; O_a    -0.59; O_b    -0.71; H_a    -0.50; H_b    -0.54; H_c    -0.57; H_d    -0.63; 
@    MULPOP    dipole moment & components:      6.4991;        0.5947      6.4719      0.0000
 -----------------------------------------------------------------------------
  12  Screening settings (-IFTHRS, JTDIIS, DIFDEN, times)  -14   12    T  1.37D+01  1.38D+01
@ 12    -1105.55744720        7.28254D-04   -2.41D-06    8
      Virial theorem: -V/T =      2.002068
@    MULPOP   C_a     0.87; C_b     0.49; C_c     0.62; C_d     0.66; C_e     0.81; C_f     0.56; C_g     0.65; C_h     0.88; C_i     0.66; C_j     1.04; 
@             C_k     0.13; C_l     0.55; C_m     0.76; C_n    -0.31; C_o     0.68; C_p     0.34; C_q     0.95; C_r     0.71; C_s     0.96; C_t     0.52; 
@             C_u     0.63; C_v    -0.22; N_a     0.18; N_b     0.40; O_a    -0.59; O_b    -0.71; H_a    -0.50; H_b    -0.54; H_c    -0.57; H_d    -0.63; 
@    MULPOP    dipole moment & components:      6.4432;        0.5711      6.4178      0.0000
 -----------------------------------------------------------------------------
  13  Screening settings (-IFTHRS, JTDIIS, DIFDEN, times)  -14   13    T  1.35D+01  1.36D+01
@ 13    -1105.55744745        3.30486D-04   -2.58D-07    8
      Virial theorem: -V/T =      2.002068
@    MULPOP   C_a     0.87; C_b     0.49; C_c     0.62; C_d     0.66; C_e     0.81; C_f     0.56; C_g     0.65; C_h     0.88; C_i     0.66; C_j     1.04; 
@             C_k     0.13; C_l     0.55; C_m     0.76; C_n    -0.31; C_o     0.68; C_p     0.34; C_q     0.95; C_r     0.71; C_s     0.96; C_t     0.52; 
@             C_u     0.63; C_v    -0.22; N_a     0.18; N_b     0.40; O_a    -0.59; O_b    -0.71; H_a    -0.50; H_b    -0.54; H_c    -0.57; H_d    -0.63; 
@    MULPOP    dipole moment & components:      6.4246;        0.5629      6.3999      0.0000
 -----------------------------------------------------------------------------
  14  Screening settings (-IFTHRS, JTDIIS, DIFDEN, times)  -14   14    T  1.35D+01  1.36D+01
@ 14    -1105.55744748        1.54102D-04   -2.83D-08    8
      Virial theorem: -V/T =      2.002068
@    MULPOP   C_a     0.87; C_b     0.49; C_c     0.62; C_d     0.66; C_e     0.81; C_f     0.56; C_g     0.65; C_h     0.88; C_i     0.66; C_j     1.04; 
@             C_k     0.13; C_l     0.55; C_m     0.76; C_n    -0.31; C_o     0.68; C_p     0.34; C_q     0.95; C_r     0.71; C_s     0.96; C_t     0.52; 
@             C_u     0.63; C_v    -0.22; N_a     0.18; N_b     0.40; O_a    -0.59; O_b    -0.71; H_a    -0.50; H_b    -0.54; H_c    -0.57; H_d    -0.63; 
@    MULPOP    dipole moment & components:      6.4204;        0.5614      6.3958      0.0000
 -----------------------------------------------------------------------------
  15  Screening settings (-IFTHRS, JTDIIS, DIFDEN, times)  -14   15    T  1.35D+01  1.36D+01
@ 15    -1105.55744749        6.97399D-05   -5.98D-09    8
      Virial theorem: -V/T =      2.002068
@    MULPOP   C_a     0.87; C_b     0.49; C_c     0.62; C_d     0.66; C_e     0.81; C_f     0.56; C_g     0.65; C_h     0.88; C_i     0.66; C_j     1.04; 
@             C_k     0.13; C_l     0.55; C_m     0.76; C_n    -0.31; C_o     0.68; C_p     0.34; C_q     0.95; C_r     0.71; C_s     0.96; C_t     0.52; 
@             C_u     0.63; C_v    -0.22; N_a     0.18; N_b     0.40; O_a    -0.59; O_b    -0.71; H_a    -0.50; H_b    -0.54; H_c    -0.57; H_d    -0.63; 
@    MULPOP    dipole moment & components:      6.4186;        0.5608      6.3941      0.0000
 -----------------------------------------------------------------------------
  16  Screening settings (-IFTHRS, JTDIIS, DIFDEN, times)  -14   16    T  1.32D+01  1.33D+01
@ 16    -1105.55744749        2.99782D-05   -8.01D-10    8
      Virial theorem: -V/T =      2.002068
@    MULPOP   C_a     0.87; C_b     0.49; C_c     0.62; C_d     0.66; C_e     0.81; C_f     0.56; C_g     0.65; C_h     0.88; C_i     0.66; C_j     1.04; 
@             C_k     0.13; C_l     0.55; C_m     0.76; C_n    -0.31; C_o     0.68; C_p     0.34; C_q     0.95; C_r     0.71; C_s     0.96; C_t     0.52; 
@             C_u     0.63; C_v    -0.22; N_a     0.18; N_b     0.40; O_a    -0.59; O_b    -0.71; H_a    -0.50; H_b    -0.54; H_c    -0.57; H_d    -0.63; 
@    MULPOP    dipole moment & components:      6.4183;        0.5608      6.3938      0.0000
 -----------------------------------------------------------------------------
  17  Screening settings (-IFTHRS, JTDIIS, DIFDEN, times)  -14   17    T  1.32D+01  1.32D+01
@ 17    -1105.55744749        1.99807D-05   -2.51D-10    8
      Virial theorem: -V/T =      2.002068
@    MULPOP   C_a     0.87; C_b     0.49; C_c     0.62; C_d     0.66; C_e     0.81; C_f     0.56; C_g     0.65; C_h     0.88; C_i     0.66; C_j     1.04; 
@             C_k     0.13; C_l     0.55; C_m     0.76; C_n    -0.31; C_o     0.68; C_p     0.34; C_q     0.95; C_r     0.71; C_s     0.96; C_t     0.52; 
@             C_u     0.63; C_v    -0.22; N_a     0.18; N_b     0.40; O_a    -0.59; O_b    -0.71; H_a    -0.50; H_b    -0.54; H_c    -0.57; H_d    -0.63; 
@    MULPOP    dipole moment & components:      6.4182;        0.5607      6.3936      0.0000
 -----------------------------------------------------------------------------
  18  Screening settings (-IFTHRS, JTDIIS, DIFDEN, times)  -14   18    T  2.39D+01  2.40D+01
@ 18    -1105.55744749        8.36661D-06   -6.78D-11    8

@ *** DIIS converged in  18 iterations !
@     Converged SCF energy, gradient:  -1105.557447489188    8.37D-06
    - total time used in SIRFCK :              0.00 seconds


 *** SCF orbital energy analysis ***

 Only the 20 lowest virtual orbital energies printed in each symmetry.

 Number of electrons :  186
 Orbital occupations :   93

 Sym       Hartree-Fock orbital energies

1 A     -20.59734295   -20.59450618   -15.84510237   -15.60041551   -11.30914386
        -11.29519470   -11.29365038   -11.28399715   -11.27588233   -11.26992704
        -11.26526296   -11.26504436   -11.26142847   -11.26056900   -11.25842929
        -11.25820323   -11.25766293   -11.25551700   -11.25467692   -11.25401760
        -11.25160863   -11.24830570   -11.24456790   -11.24016212   -11.23522805
        -11.23277293    -1.58327450    -1.38090421    -1.24007791    -1.14580412
         -1.13070773    -1.12081662    -1.11094445    -1.09826024    -1.08217857
         -1.06296341    -1.04085423    -1.01605684    -0.98878960    -0.95957660
         -0.93816558    -0.89000429    -0.85848535    -0.82844896    -0.80388894
         -0.78829908    -0.78366444    -0.77480490    -0.76872728    -0.76491139
         -0.75421950    -0.75195793    -0.73583495    -0.71840654    -0.71324089
         -0.69601176    -0.68193204    -0.67279919    -0.66910720    -0.65288040
         -0.64306768    -0.63233888    -0.61795283    -0.60571473    -0.60028919
         -0.58079023    -0.57641920    -0.56483665    -0.55177363    -0.55087639
         -0.53977714    -0.53195660    -0.53044941    -0.52414453    -0.52293248
         -0.51671574    -0.51090561    -0.50534484    -0.49856579    -0.49810361
         -0.48565170    -0.48055169    -0.47725684    -0.47288024    -0.45592076
         -0.43905125    -0.43410018    -0.40776420    -0.37696331    -0.34207572
         -0.30388391    -0.26423827    -0.22671612     0.00063379     0.00507266
          0.00509284     0.00689535     0.00779266     0.00889041     0.01204355
          0.01344581     0.01381676     0.01646789     0.01818552     0.01995930
          0.02081213     0.02104268     0.02301652     0.02407792     0.02463148
          0.02540791     0.02578101     0.02701045

    E(LUMO) :     0.00063379 au (symmetry 1)
  - E(HOMO) :    -0.22671612 au (symmetry 1)
  ------------------------------------------
    gap     :     0.22734991 au

 --- Writing SIRIFC interface file

 CPU and wall time for SCF :     444.439     447.132


                       .-----------------------------------.
                       | --- Final results from SIRIUS --- |
                       `-----------------------------------'


@    Spin multiplicity:           1
@    Spatial symmetry:            1 ( irrep  A   in C1  )
@    Total charge of molecule:    0

@    Final HF energy:           -1105.557447489188                 
@    Nuclear repulsion:          1581.530184833914
@    Electronic energy:         -2687.087632323102

@    Final gradient norm:           0.000008366613

 
     Date and time (Linux)  : Thu May 29 16:55:29 2025
     Host name              : xm009                                   

File label for MO orbitals:  29May25   FOCKDIIS

 (Only coefficients > 0.0100 are printed.)

 Molecular orbitals for symmetry species 1  (A  )
 ------------------------------------------------

    Orbital        84       85       86       87       88       89       90
   8 C_a :2pz    0.2232  -0.0660  -0.0247  -0.1764  -0.2092   0.0336   0.2364
  14 C_a :2pz    0.5161  -0.2175  -0.0510  -0.1718  -0.2396   0.0200   0.0481
  17 C_a :2pz    0.0445  -0.0219  -0.0202   0.0002   0.0173   0.0085  -0.1803
  21 C_a :3d1+   0.0069   0.0036  -0.0011  -0.0109  -0.0032   0.0107   0.0106
  29 C_a :3d1-   0.1941  -0.0112   0.0133   0.2081  -0.1045   0.0311   0.0817
  31 C_a :3d1+   0.1828  -0.0073   0.0068   0.2414  -0.0838   0.0221   0.0763
  40 C_b :2pz    0.1931   0.0389  -0.0250  -0.2280  -0.1015   0.1732   0.1941
  46 C_b :2pz    0.4285   0.1248  -0.0259  -0.4002  -0.1147   0.1471  -0.0653
  49 C_b :2pz   -0.0067   0.0224   0.0134  -0.0181  -0.0055  -0.0425  -0.1100
  53 C_b :3d1+  -0.0091   0.0050   0.0010   0.0065   0.0117   0.0006  -0.0137
  61 C_b :3d1-   0.3644  -0.0544   0.0033   0.1409  -0.1130   0.0559   0.0743
  63 C_b :3d1+   0.3946  -0.0463  -0.0080   0.1146  -0.1441   0.0523   0.0944
  72 C_c :2pz    0.1113   0.1772  -0.0132  -0.1831   0.1300   0.2103  -0.1026
  78 C_c :2pz    0.2657   0.3384  -0.0104  -0.3713   0.0826   0.1481   0.0526
  81 C_c :2pz   -0.0285   0.0370  -0.0216  -0.0091  -0.0429  -0.0498   0.0596
  85 C_c :3d1+  -0.0002   0.0101   0.0002  -0.0016   0.0117   0.0028  -0.0132
  93 C_c :3d1-   0.4743   0.0242   0.0027   0.0237  -0.1148   0.1343   0.0767
  95 C_c :3d1+   0.4820   0.0169   0.0061   0.0365  -0.1484   0.1277   0.0969
 104 C_d :2pz    0.0367   0.2267  -0.0002  -0.0793   0.2189   0.0858  -0.2151
 110 C_d :2pz    0.0944   0.4707  -0.0205  -0.1002   0.2926  -0.0501  -0.0314
 113 C_d :2pz   -0.0405   0.0178  -0.0172  -0.0360  -0.0250  -0.0653   0.0535
 117 C_d :3d1+  -0.0059  -0.0058   0.0008   0.0099  -0.0043  -0.0126   0.0041
 125 C_d :3d1-   0.5038   0.1629  -0.0227  -0.0834  -0.0988   0.0844   0.0814
 127 C_d :3d1+   0.5492   0.2085  -0.0174  -0.1003  -0.0887   0.1093   0.0735
 136 C_e :2pz   -0.0771   0.2258   0.0187   0.1106   0.1923  -0.1769  -0.1238
 142 C_e :2pz   -0.0183   0.4431   0.0402   0.1785   0.3204  -0.0829  -0.0727
 145 C_e :2pz    0.0209  -0.0485   0.0472   0.0287   0.0536   0.0901   0.1321
 149 C_e :3d1+  -0.0070   0.0056   0.0012   0.0103   0.0014  -0.0127   0.0045
 157 C_e :3d1-   0.5409   0.2853   0.0033  -0.0293   0.0485   0.1137   0.0978
 159 C_e :3d1+   0.5927   0.2801   0.0033  -0.0405   0.0414   0.1452   0.0928
 168 C_f :2pz   -0.1461   0.1696   0.0254   0.2008   0.0716  -0.2345   0.0473
 171 C_f :2pz    0.0102  -0.0025  -0.0010  -0.0095   0.0062   0.0019  -0.0082
 174 C_f :2pz   -0.2064   0.3536   0.0618   0.4212  -0.0063  -0.1436   0.0468
 177 C_f :2pz    0.0664  -0.0309   0.0004   0.0553   0.0298   0.1043  -0.0229
 179 C_f :3d1-  -0.0069  -0.0008   0.0007   0.0072  -0.0074  -0.0022   0.0105
 181 C_f :3d1+   0.0010  -0.0100  -0.0006  -0.0026  -0.0111   0.0078   0.0092
 189 C_f :3d1-   0.4714   0.4463   0.0003   0.0123   0.0374   0.0512   0.0442
 191 C_f :3d1+   0.4993   0.4974  -0.0003   0.0425   0.0564   0.0302   0.0389
 200 C_g :2pz   -0.2243   0.0391   0.0239   0.2354  -0.1528  -0.1020   0.2425
 206 C_g :2pz   -0.3088   0.1187   0.0393   0.4740  -0.1798  -0.1751   0.0630
 209 C_g :2pz   -0.0153   0.0559  -0.0462  -0.0528  -0.0395  -0.0897  -0.2708
 213 C_g :3d1+  -0.0099  -0.0045   0.0005   0.0062  -0.0119   0.0053   0.0085
 221 C_g :3d1-   0.4372   0.4773   0.0381   0.2020   0.0660   0.0446   0.1137
 223 C_g :3d1+   0.4911   0.5154   0.0364   0.1963   0.0884   0.0418   0.1246
 232 C_h :2pz   -0.2522  -0.0609   0.0149   0.1740  -0.2293   0.0598   0.1669
 235 C_h :2pz    0.0131   0.0069   0.0001  -0.0010   0.0077  -0.0102   0.0086
 238 C_h :2pz   -0.4069  -0.1920   0.0277   0.2925  -0.3117   0.0735  -0.0237
 241 C_h :2pz   -0.0675   0.0299   0.0154  -0.0213  -0.0319  -0.0701   0.0324
 245 C_h :3d1+   0.0072  -0.0040  -0.0012  -0.0111   0.0052   0.0080  -0.0143
 253 C_h :3d1-   0.2668   0.4955   0.0253   0.2805  -0.0523  -0.0224   0.0443
 255 C_h :3d1+   0.2760   0.5466   0.0312   0.3352  -0.0942  -0.0230   0.0722
 264 C_i :2pz   -0.2633  -0.1892  -0.0042   0.0067  -0.1882   0.2420  -0.1356
 267 C_i :2pz    0.0126   0.0039  -0.0004  -0.0054   0.0076   0.0004  -0.0094
 270 C_i :2pz   -0.3738  -0.2770  -0.0002   0.0594  -0.3748   0.1686  -0.0131
 273 C_i :2pz    0.0106  -0.0451   0.0291   0.0609   0.0253   0.0481   0.2730
 277 C_i :3d1+  -0.0085  -0.0103  -0.0009  -0.0070  -0.0008   0.0097  -0.0137
 285 C_i :3d1-   0.1974   0.3876   0.0457   0.3565  -0.1024   0.0458   0.1026
 287 C_i :3d1+   0.2538   0.4617   0.0541   0.4016  -0.1108   0.0532   0.1141
 296 C_j :2pz   -0.2437  -0.2382  -0.0162  -0.1123  -0.0637   0.2030  -0.2266
 299 C_j :2pz    0.0128   0.0125   0.0012   0.0107  -0.0079   0.0032  -0.0011
 302 C_j :2pz   -0.3159  -0.4180  -0.0267  -0.1877  -0.0694   0.1096   0.0065
 305 C_j :2pz    0.0419  -0.0321  -0.0187  -0.0279   0.0322   0.0164  -0.0516
 309 C_j :3d1+   0.0096   0.0056  -0.0001  -0.0033   0.0112  -0.0126   0.0058
 317 C_j :3d1-   0.0412   0.3049   0.0299   0.3280  -0.2367   0.0633   0.0679
 319 C_j :3d1+   0.0309   0.3211   0.0323   0.3546  -0.2826   0.1009   0.0504
 328 C_k :2pz   -0.1933  -0.2517  -0.0273  -0.2370   0.1580  -0.0314  -0.1057
 331 C_k :2pz    0.0081   0.0065   0.0003   0.0012   0.0060  -0.0116   0.0094
 334 C_k :2pz   -0.2216  -0.4022  -0.0486  -0.3888   0.1596  -0.0197  -0.0632
 337 C_k :2pz   -0.0098   0.0287  -0.0109  -0.0318  -0.0247  -0.0054  -0.1659
 341 C_k :3d1+  -0.0038  -0.0071  -0.0011  -0.0102   0.0119  -0.0108   0.0060
 349 C_k :3d1-   0.0147   0.1758   0.0283   0.2463  -0.1657   0.0883   0.0912
 351 C_k :3d1+   0.0195   0.2117   0.0333   0.2923  -0.1842   0.0894   0.1212
 360 C_l :2pz   -0.1378  -0.2063  -0.0261  -0.2389   0.2300  -0.1714   0.0701
 363 C_l :2pz    0.0098   0.0113   0.0014   0.0121  -0.0130   0.0124  -0.0113
 366 C_l :2pz    0.0291  -0.1903  -0.0244  -0.2699   0.1683  -0.0277  -0.1188
 369 C_l :2pz   -0.0094   0.0283   0.0121   0.0438  -0.0259   0.0150   0.0419
 371 C_l :3d1-   0.0002  -0.0008  -0.0002  -0.0027   0.0052  -0.0079   0.0103
 373 C_l :3d1+   0.0084   0.0106   0.0011   0.0094  -0.0052  -0.0016   0.0091
 378 C_l :3d1+   0.0009   0.0009  -0.0000  -0.0008   0.0047  -0.0090   0.0113
 381 C_l :3d1-  -0.0573   0.0797   0.0100   0.1365  -0.1764   0.1030   0.0168
 383 C_l :3d1+  -0.0766   0.0679   0.0084   0.1301  -0.1635   0.0908   0.0376
 392 C_m :2pz   -0.0444  -0.0903  -0.0144  -0.1399   0.1883  -0.2274   0.2513
 398 C_m :2pz    0.0213  -0.1129  -0.0179  -0.1835   0.2143  -0.1205  -0.0395
 401 C_m :2pz    0.0034  -0.0203   0.0004  -0.0049   0.0207  -0.0123   0.0524
 413 C_m :3d1-  -0.0187   0.0409   0.0070   0.0684  -0.0697   0.0466   0.0365
 415 C_m :3d1+  -0.0269   0.0586   0.0114   0.1047  -0.0974   0.0765   0.0407
 424 C_n :2pz    0.0310   0.0207   0.0001  -0.0051   0.0406  -0.0824   0.1266
 427 C_n :2pz   -0.0093  -0.0113  -0.0014  -0.0124   0.0127  -0.0124   0.0121
 430 C_n :2pz    0.0740  -0.0672  -0.0128  -0.1457   0.1834  -0.1771   0.0260
 433 C_n :2pz   -0.0024  -0.0132  -0.0038  -0.0222   0.0145  -0.0154  -0.0110
 435 C_n :3d1-   0.0052   0.0071   0.0009   0.0085  -0.0096   0.0104  -0.0109
 437 C_n :3d1+   0.0046   0.0076   0.0011   0.0105  -0.0135   0.0160  -0.0177
 445 C_n :3d1-  -0.0209  -0.0034  -0.0010   0.0035  -0.0152   0.0096   0.0042
 447 C_n :3d1+  -0.0237   0.0136   0.0018   0.0276  -0.0360   0.0287   0.0078
 456 C_o :2pz   -0.1935   0.1614   0.0048  -0.0938   0.0052   0.1144   0.2081
 459 C_o :2pz    0.0079  -0.0075  -0.0114   0.0106   0.0092   0.0082   0.0089
 462 C_o :2pz   -0.0557   0.2260   0.0449   0.0841   0.1711   0.2368   0.1271
 465 C_o :2pz   -0.0286   0.0158  -0.0235  -0.0213  -0.0153  -0.0149   0.0339
 469 C_o :3d1+  -0.0053   0.0018   0.0009   0.0031   0.0083   0.0121   0.0131
 477 C_o :3d1-  -0.1127   0.2832  -0.0476  -0.1393  -0.1171   0.0118   0.0337
 479 C_o :3d1+  -0.0753   0.2305  -0.0401  -0.0939  -0.0759   0.0280   0.0331
 488 C_p :2pz   -0.1439   0.0696   0.0147   0.0319   0.1369   0.2077   0.2214
 494 C_p :2pz   -0.1462   0.2731   0.0646   0.0809   0.1088   0.1113   0.0169
 497 C_p :2pz    0.0867  -0.0865   0.1254   0.0862   0.1021   0.1304   0.0845
 501 C_p :3d1+   0.0089  -0.0088   0.0002   0.0068   0.0022  -0.0043  -0.0114
 509 C_p :3d1-  -0.0165   0.2857   0.0331   0.0207   0.0626   0.2077   0.1686
 511 C_p :3d1+  -0.0336   0.2699   0.0367   0.0368   0.0976   0.2307   0.1914
 520 C_q :2pz   -0.0290  -0.0977   0.0251   0.2021   0.2284   0.1415  -0.0290
 526 C_q :2pz   -0.2039  -0.0297   0.0361   0.1735   0.1138  -0.0582  -0.0524
 529 C_q :2pz    0.0394  -0.0104  -0.0251   0.0212   0.0103   0.0073  -0.1031
 533 C_q :3d1+   0.0038  -0.0090   0.0008   0.0105   0.0064  -0.0022  -0.0108
 541 C_q :3d1-  -0.1605   0.3882  -0.0137  -0.0295  -0.0065   0.0969   0.0398
 543 C_q :3d1+  -0.1974   0.4112  -0.0211  -0.0812  -0.0512   0.0658   0.0319
 552 C_r :2pz    0.0562  -0.1788   0.0210   0.2233   0.1498  -0.0135  -0.1704
 555 C_r :2pz   -0.0054   0.0100  -0.0029  -0.0043   0.0036   0.0092   0.0034
 558 C_r :2pz    0.1743  -0.3528  -0.0173   0.4372   0.1574  -0.0793  -0.0102
 561 C_r :2pz   -0.0853   0.0908  -0.0916  -0.0976  -0.1081  -0.1758  -0.1312
 563 C_r :3d1-   0.0061  -0.0069  -0.0001   0.0023  -0.0056  -0.0103  -0.0066
 565 C_r :3d1+   0.0031   0.0022  -0.0012  -0.0084  -0.0122  -0.0097  -0.0002
 573 C_r :3d1-  -0.1001   0.2442   0.0429   0.1520   0.1535   0.1881   0.1641
 575 C_r :3d1+  -0.1203   0.2572   0.0482   0.1504   0.1357   0.1661   0.1418
 584 C_s :2pz    0.1667  -0.2269   0.0029   0.1265  -0.0827  -0.2304  -0.1718
 590 C_s :2pz    0.3891  -0.3909   0.0597   0.3247  -0.0687  -0.0743  -0.0205
 593 C_s :2pz   -0.0466   0.0069   0.0458  -0.0056  -0.0035   0.0046   0.1798
 597 C_s :3d1+   0.0090  -0.0073  -0.0007  -0.0018  -0.0109  -0.0105   0.0005
 605 C_s :3d1-  -0.0742   0.1880   0.0026   0.2002   0.0556   0.0530   0.0499
 607 C_s :3d1+  -0.0792   0.2256   0.0105   0.1973   0.0687   0.0818   0.0530
 616 C_t :2pz    0.2089  -0.1899  -0.0106   0.0042  -0.1935  -0.2053  -0.0141
 622 C_t :2pz    0.3530  -0.3051  -0.0414  -0.0762  -0.3911  -0.1850  -0.0205
 625 C_t :2pz    0.0569  -0.0649   0.0270   0.0700   0.0615   0.1446   0.1438
 627 C_t :3d1-   0.0060   0.0000  -0.0009  -0.0076  -0.0068   0.0036   0.0110
 629 C_t :3d1+  -0.0053   0.0099  -0.0004  -0.0079   0.0019   0.0122   0.0117
 637 C_t :3d1-   0.0685   0.0407   0.0401   0.2713   0.0535   0.0800   0.1154
 639 C_t :3d1+   0.1234   0.0137   0.0429   0.3078   0.0574   0.0881   0.1201
 648 C_u :2pz   -0.1509   0.1831  -0.0031  -0.2141  -0.2378  -0.2519  -0.2506
 654 C_u :2pz    0.0594   0.3491  -0.1218  -0.1131  -0.2119  -0.0086   0.0547
 657 C_u :2pz    0.0155   0.0002   0.0390   0.0077   0.0055   0.0095  -0.0047
 661 C_u :3d1+  -0.0093   0.0104  -0.0038  -0.0105  -0.0105  -0.0093  -0.0072
 666 C_u :3d1+  -0.0065   0.0094  -0.0260  -0.0051  -0.0067  -0.0045  -0.0028
 669 C_u :3d1-  -0.0027   0.0431  -0.0040  -0.0218  -0.0284  -0.0073  -0.0052
 671 C_u :3d1+   0.0193   0.0672  -0.0151  -0.0172  -0.0387   0.0050   0.0191
 680 C_v :2pz   -0.1864   0.2058  -0.0129  -0.2104  -0.1978  -0.1672  -0.1219
 683 C_v :2pz    0.0135  -0.0127   0.0291   0.0061   0.0038  -0.0014  -0.0051
 686 C_v :2pz   -0.2232   0.2674   0.0330  -0.1692  -0.0425   0.0806   0.0920
 689 C_v :2pz   -0.0557   0.0516  -0.0836  -0.0464  -0.0552  -0.0605  -0.0376
 691 C_v :3d1-  -0.0053   0.0037   0.0007  -0.0012   0.0028   0.0072   0.0110
 693 C_v :3d1+   0.0055  -0.0075  -0.0000   0.0099   0.0123   0.0145   0.0157
 701 C_v :3d1-   0.0249   0.1279  -0.0268  -0.0159  -0.0220   0.0777   0.1023
 703 C_v :3d1+   0.0578   0.1440  -0.0154  -0.0009  -0.0203   0.0924   0.1094
 712 N_a :2pz    0.1203   0.1600   0.0197   0.1812  -0.1955   0.2039  -0.2078
 715 N_a :2pz    0.0101   0.0139   0.0018   0.0166  -0.0191   0.0216  -0.0239
 718 N_a :2pz    0.0277   0.0199   0.0031   0.0240  -0.0344   0.0512  -0.0765
 721 N_a :2pz    0.0019   0.0174   0.0020   0.0194  -0.0202   0.0193  -0.0107
 744 N_b :2pz    0.0231  -0.0233   0.0085   0.0194   0.0141   0.0057  -0.0042
 750 N_b :2pz    0.0449  -0.0163   0.0401   0.0412   0.0470   0.0609   0.0453
 753 N_b :2pz    0.0331  -0.0628   0.0217   0.0328   0.0416   0.0279   0.0190
 755 N_b :3d1-  -0.0054   0.0064   0.0159  -0.0096  -0.0092  -0.0097  -0.0098
 757 N_b :3d1+  -0.0026   0.0039  -0.0547   0.0029  -0.0021  -0.0028  -0.0029
 765 N_b :3d1-   0.0161  -0.0161   0.0080   0.0216   0.0241   0.0243   0.0202
 767 N_b :3d1+   0.0203  -0.0058  -0.0347   0.0182   0.0066   0.0062   0.0036
 776 O_a :2pz    0.0589  -0.0785   0.6436   0.0037   0.0656   0.0755   0.0783
 779 O_a :2pz    0.0038  -0.0053   0.0495  -0.0004   0.0046   0.0055   0.0061
 782 O_a :2pz    0.0150  -0.0061   0.0214   0.0067  -0.0013  -0.0022   0.0013
 785 O_a :2pz   -0.0156   0.0239  -0.0195  -0.0146  -0.0179  -0.0131  -0.0082
 789 O_a :3d1+   0.0017  -0.0021   0.0136   0.0005   0.0017   0.0017   0.0015
 794 O_a :3d1+   0.0027  -0.0034   0.0284  -0.0001   0.0024   0.0025   0.0023
 808 O_b :2pz    0.0417  -0.0405  -0.6398   0.1319   0.0826   0.0806   0.0783
 811 O_b :2pz    0.0012  -0.0012  -0.0494   0.0086   0.0055   0.0061   0.0068
 814 O_b :2pz   -0.0116   0.0008  -0.0509   0.0021   0.0063   0.0104   0.0176
 817 O_b :2pz   -0.0064   0.0200   0.0037  -0.0073  -0.0090  -0.0023  -0.0013
 819 O_b :3d1-   0.0006  -0.0006  -0.0100   0.0019   0.0010   0.0008   0.0006
 824 O_b :3d1-   0.0019  -0.0016  -0.0224   0.0050   0.0032   0.0032   0.0031
 826 O_b :3d1+  -0.0008   0.0003   0.0181  -0.0028  -0.0012  -0.0011  -0.0011
 845 H_a :2pz   -0.0201   0.0147   0.0039   0.0170   0.0181   0.0068   0.0178
 858 H_b :2pz   -0.0104  -0.0098   0.0094   0.0310   0.0162   0.0079   0.0175
 871 H_c :2pz   -0.0218  -0.0228  -0.0001   0.0183  -0.0057  -0.0110  -0.0095
 884 H_d :2pz   -0.0122  -0.0248  -0.0051   0.0066  -0.0235  -0.0042  -0.0093
 897 H_e :2pz    0.0091  -0.0225  -0.0006  -0.0066  -0.0190   0.0091  -0.0045
 910 H_f :2pz    0.0131  -0.0212   0.0005  -0.0284   0.0016   0.0091  -0.0012
 923 H_g :2pz    0.0062  -0.0095  -0.0044  -0.0326   0.0122   0.0004   0.0152
 936 H_h :2pz    0.0171   0.0129  -0.0039  -0.0151   0.0172  -0.0035   0.0102
 949 H_i :2pz    0.0301   0.0211   0.0019   0.0016   0.0182   0.0035  -0.0195
 962 H_j :2pz    0.0188   0.0186   0.0027   0.0102   0.0095  -0.0034  -0.0151
 975 H_k :2pz   -0.0022   0.0163   0.0010   0.0162  -0.0038  -0.0142   0.0197
 988 H_l :2pz   -0.0083   0.0131   0.0014   0.0191  -0.0154  -0.0032   0.0236
1001 H_m :2pz    0.0015   0.0034   0.0016   0.0110  -0.0139   0.0157  -0.0065
1014 H_n :2pz    0.0013  -0.0050  -0.0004  -0.0025  -0.0055   0.0142  -0.0210
1053 H_q :2pz   -0.0076  -0.0178  -0.0052  -0.0077  -0.0121  -0.0275  -0.0177
1066 H_r :2pz   -0.0166  -0.0064  -0.0183  -0.0234  -0.0281  -0.0321  -0.0167
1079 H_s :2pz    0.0165   0.0029   0.0003  -0.0080  -0.0061   0.0158   0.0142
1092 H_t :2pz    0.0178   0.0107   0.0129  -0.0057   0.0126   0.0351   0.0164
1105 H_u :2pz   -0.0415   0.0254  -0.0085  -0.0133   0.0056  -0.0182  -0.0154
1118 H_v :2pz   -0.0251   0.0212  -0.0036  -0.0238   0.0028  -0.0057  -0.0173
1131 H_w :2pz    0.0131  -0.0107   0.0099   0.0178   0.0198   0.0213   0.0163
1144 H_x :2pz    0.0229  -0.0190   0.0025   0.0206   0.0149   0.0104   0.0082

    Orbital        91       92       93       94       95       96       97
   3 C_a :1s     0.0000  -0.0000  -0.0000  -0.0238  -0.0000  -0.0141  -0.0279
   4 C_a :1s     0.0000  -0.0000   0.0000  -0.5416   0.0000   0.3720   0.3983
   5 C_a :1s     0.0000  -0.0000   0.0000  -0.7858   0.0000  -5.8391   3.0641
   8 C_a :2pz    0.1036   0.1966   0.2145   0.0000   0.1506  -0.0000   0.0000
   9 C_a :2px    0.0000   0.0000  -0.0000   0.0575  -0.0000   0.0158   0.0731
  10 C_a :2py    0.0000   0.0000  -0.0000   0.0907  -0.0000   0.0661   0.0698
  11 C_a :2pz   -0.0028   0.0163   0.0160   0.0000   0.0186  -0.0000   0.0000
  12 C_a :2px   -0.0000   0.0000   0.0000   0.3084  -0.0000   0.0509  -0.9168
  13 C_a :2py   -0.0000   0.0000   0.0000  -0.4741   0.0000  -0.0085   1.0535
  14 C_a :2pz    0.0727  -0.1372  -0.0436  -0.0000  -0.0299   0.0000  -0.0000
  15 C_a :2px    0.0000  -0.0000  -0.0000  -1.1187   0.0000  -1.5412  -0.7981
  16 C_a :2py   -0.0000  -0.0000   0.0000  -0.6147  -0.0000   0.6876   1.8967
  17 C_a :2pz   -0.0620  -0.1701   0.0077   0.0000   0.0306  -0.0000  -0.0000
  19 C_a :3d1-  -0.0083   0.0098   0.0035   0.0000  -0.0152  -0.0000   0.0000
  21 C_a :3d1+  -0.0051   0.0155   0.0087  -0.0000  -0.0150   0.0000   0.0000
  23 C_a :3d2-  -0.0000   0.0000   0.0000   0.0241   0.0000   0.0122  -0.0074
  24 C_a :3d1-  -0.0020   0.0070   0.0047  -0.0000  -0.0102   0.0000  -0.0000
  26 C_a :3d1+  -0.0061   0.0086   0.0034   0.0000  -0.0153  -0.0000  -0.0000
  27 C_a :3d2+  -0.0000   0.0000  -0.0000   0.0287  -0.0000   0.0166   0.0278
  28 C_a :3d2-  -0.0000   0.0000  -0.0000   0.0342  -0.0000   0.5240  -0.0374
  29 C_a :3d1-  -0.0288   0.0013   0.0749   0.0000   0.0271  -0.0000   0.0000
  30 C_a :3d0    0.0000  -0.0000   0.0000  -0.0759   0.0000  -0.1392   0.1694
  31 C_a :3d1+  -0.0104  -0.0394   0.0485  -0.0000  -0.0069   0.0000   0.0000
  32 C_a :3d2+  -0.0000   0.0000   0.0000  -0.1377   0.0000   0.1545   0.1200
  35 C_b :1s    -0.0000  -0.0000  -0.0000  -0.0608  -0.0000  -0.1203  -0.0747
  36 C_b :1s    -0.0000   0.0000   0.0000  -0.4753  -0.0000  -0.3472   0.8437
  37 C_b :1s    -0.0000   0.0000  -0.0000  -0.3026  -0.0000   7.2763  -3.6345
  39 C_b :2py   -0.0000  -0.0000   0.0000   0.0005   0.0000   0.0040  -0.0106
  40 C_b :2pz   -0.0667   0.2320   0.1223  -0.0000  -0.2377   0.0000  -0.0000
  41 C_b :2px    0.0000   0.0000  -0.0000   0.0862  -0.0000   0.0277   0.0476
  42 C_b :2py    0.0000   0.0000  -0.0000   0.0353  -0.0000  -0.0468   0.0114
  43 C_b :2pz    0.0051   0.0127   0.0133  -0.0000  -0.0338   0.0000  -0.0000
  44 C_b :2px   -0.0000  -0.0000  -0.0000   0.1378  -0.0000   0.9171   0.8714
  45 C_b :2py    0.0000  -0.0000  -0.0000   0.1621  -0.0000  -1.1877  -0.8543
  46 C_b :2pz   -0.1005  -0.0851  -0.0579   0.0000   0.0630  -0.0000   0.0000
  47 C_b :2px    0.0000   0.0000   0.0000  -1.1552  -0.0000  -0.5378  -0.6184
  48 C_b :2py   -0.0000  -0.0000  -0.0000  -1.3023   0.0000  -0.8151  -0.7069
  49 C_b :2pz    0.1405  -0.0402   0.0352  -0.0000   0.0486  -0.0000  -0.0000
  51 C_b :3d1-  -0.0100  -0.0056  -0.0118   0.0000  -0.0092  -0.0000   0.0000
  53 C_b :3d1+  -0.0080  -0.0126  -0.0152  -0.0000  -0.0083   0.0000  -0.0000
  55 C_b :3d2-   0.0000   0.0000  -0.0000   0.0381   0.0000   0.0177   0.0030
  58 C_b :3d1+  -0.0081  -0.0054  -0.0106   0.0000  -0.0107  -0.0000  -0.0000
  59 C_b :3d2+   0.0000   0.0000  -0.0000  -0.0236   0.0000   0.0067  -0.0128
  60 C_b :3d2-   0.0000  -0.0000   0.0000   0.0690   0.0000  -0.2708   0.5081
  61 C_b :3d1-  -0.0113  -0.0932  -0.0144   0.0000   0.0678  -0.0000  -0.0000
  62 C_b :3d0   -0.0000  -0.0000  -0.0000  -0.0676  -0.0000   0.2079  -0.1203
  63 C_b :3d1+   0.0043  -0.0660   0.0173   0.0000   0.0011  -0.0000  -0.0000
  64 C_b :3d2+  -0.0000   0.0000   0.0000   0.0216  -0.0000   0.6156   0.0055
  67 C_c :1s     0.0000  -0.0000   0.0000  -0.0614  -0.0000  -0.0828  -0.0957
  68 C_c :1s     0.0000  -0.0000  -0.0000  -0.1821  -0.0000   0.0228   0.3489
  69 C_c :1s     0.0000  -0.0000  -0.0000  -1.7338   0.0000 -10.8355   0.0473
  72 C_c :2pz   -0.2213  -0.1052  -0.2429   0.0000  -0.1217  -0.0000   0.0000
  73 C_c :2px   -0.0000   0.0000  -0.0000   0.0133  -0.0000  -0.1109  -0.0604
  74 C_c :2py   -0.0000   0.0000  -0.0000   0.0801  -0.0000  -0.0328  -0.0092
  75 C_c :2pz   -0.0056  -0.0121  -0.0184   0.0000  -0.0132  -0.0000  -0.0000
  76 C_c :2px    0.0000   0.0000   0.0000   0.3362   0.0000   0.4903  -1.0197
  77 C_c :2py    0.0000  -0.0000   0.0000  -0.0281   0.0000  -0.2512   0.5913
  78 C_c :2pz    0.0248   0.1131   0.0596  -0.0000   0.0083   0.0000  -0.0000
  79 C_c :2px   -0.0000  -0.0000  -0.0000  -1.7062  -0.0000  -0.2314  -0.7253
  80 C_c :2py    0.0000   0.0000  -0.0000  -0.9664   0.0000  -0.6320  -0.4131
  81 C_c :2pz    0.0795   0.0364   0.0005   0.0000  -0.1381  -0.0000   0.0000
  83 C_c :3d1-   0.0024  -0.0107  -0.0052   0.0000   0.0139  -0.0000  -0.0000
  85 C_c :3d1+  -0.0048  -0.0139  -0.0112  -0.0000   0.0139   0.0000  -0.0000
  87 C_c :3d2-   0.0000   0.0000   0.0000   0.0297   0.0000   0.0260  -0.0047
  90 C_c :3d1+   0.0010  -0.0088  -0.0050   0.0000   0.0144  -0.0000   0.0000
  91 C_c :3d2+  -0.0000   0.0000  -0.0000   0.0212  -0.0000  -0.0256  -0.0168
  92 C_c :3d2-  -0.0000  -0.0000  -0.0000   0.2319  -0.0000   0.5494  -0.0100
  93 C_c :3d1-  -0.0289  -0.1049  -0.0048  -0.0000   0.0690   0.0000   0.0000
  94 C_c :3d0    0.0000   0.0000   0.0000  -0.1346   0.0000  -0.2804   0.1159
  95 C_c :3d1+  -0.0256  -0.0705   0.0335  -0.0000   0.1109   0.0000   0.0000
  96 C_c :3d2+  -0.0000  -0.0000   0.0000  -0.1019   0.0000   0.4783   0.1263
[...]

       No.  Residual tot.,    conf., and orb.    Bnorm      Frequency 
      ----------------------------------------------------------------
         1    1.20653D-01  0.00D+00  1.21D-01  6.32D+01    0.00000D+00
         2    1.25271D-01  0.00D+00  1.25D-01  6.55D+01    1.64000D-02
         3    1.41119D-01  0.00D+00  1.41D-01  7.35D+01    3.28000D-02

 ** RSPCTL MICROITERATION NUMBER    7

       No.  Residual tot.,    conf., and orb.    Bnorm      Frequency 
      ----------------------------------------------------------------
         1    3.57464D-02  0.00D+00  3.57D-02  6.32D+01    0.00000D+00
         2    3.73356D-02  0.00D+00  3.73D-02  6.55D+01    1.64000D-02
         3    4.28714D-02  0.00D+00  4.29D-02  7.35D+01    3.28000D-02

 *** THE REQUESTED    3 SOLUTION VECTORS CONVERGED

 Convergence of RSP solution vectors, threshold = 1.00D-03
 ---------------------------------------------------------------
 (dimension of paired reduced space:   42)
 RSP solution vector no.    1; norm of residual   5.66D-04
 RSP solution vector no.    2; norm of residual   5.70D-04
 RSP solution vector no.    3; norm of residual   5.84D-04

 *** RSPCTL MICROITERATIONS CONVERGED

@ QRLRVE: SINGLET SOLUTION FOR SYMMETRY    1  ( A  )    LABEL   YDIPLEN     FREQUENCY   0.000000D+00

@ QRLRVE:  << XDIPLEN  ; YDIPLEN  >> (   0.00000):     851.747565673    

@ QRLRVE:  << YDIPLEN  ; YDIPLEN  >> (   0.00000):     894.711397951    

@ QRLRVE:  << ZDIPLEN  ; YDIPLEN  >> (   0.00000):    2.333389002445E-13

@ QRLRVE: SINGLET SOLUTION FOR SYMMETRY    1  ( A  )    LABEL   YDIPLEN     FREQUENCY   0.164000D-01

@ QRLRVE:  << XDIPLEN  ; YDIPLEN  >> (   0.01640):     875.611838644    

@ QRLRVE:  << YDIPLEN  ; YDIPLEN  >> (   0.01640):     913.365314869    

@ QRLRVE:  << ZDIPLEN  ; YDIPLEN  >> (   0.01640):    2.380111363424E-13

@ QRLRVE: SINGLET SOLUTION FOR SYMMETRY    1  ( A  )    LABEL   YDIPLEN     FREQUENCY   0.328000D-01

@ QRLRVE:  << XDIPLEN  ; YDIPLEN  >> (   0.03280):     956.047199774    

@ QRLRVE:  << YDIPLEN  ; YDIPLEN  >> (   0.03280):     976.162422067    

@ QRLRVE:  << ZDIPLEN  ; YDIPLEN  >> (   0.03280):    2.536436308059E-13


 QRLRVE -- linear response calculation for symmetry  1  ( A  )
 QRLRVE -- operator label : ZDIPLEN 
 QRLRVE -- operator spin  :   0
 QRLRVE -- frequencies :  0.000000  0.016400  0.032800



 ---  SOLVING SETS OF LINEAR EQUATIONS FOR LINEAR RESPONSE PROPERTIES ---

 Operator symmetry = 1  ( A  ); triplet =   F


 ** RSPCTL MICROITERATION NUMBER    1

       No.  Residual tot.,    conf., and orb.    Bnorm      Frequency 
      ----------------------------------------------------------------
         1    3.91953D+00  0.00D+00  3.92D+00  1.05D+01    0.00000D+00
         2    3.92210D+00  0.00D+00  3.92D+00  1.06D+01    1.64000D-02
         3    3.92984D+00  0.00D+00  3.93D+00  1.06D+01    3.28000D-02

 ** RSPCTL MICROITERATION NUMBER    2

       No.  Residual tot.,    conf., and orb.    Bnorm      Frequency 
      ----------------------------------------------------------------
         1    8.73003D-01  0.00D+00  8.73D-01  1.10D+01    0.00000D+00
         2    8.74818D-01  0.00D+00  8.75D-01  1.10D+01    1.64000D-02
         3    8.80311D-01  0.00D+00  8.80D-01  1.11D+01    3.28000D-02

 ** RSPCTL MICROITERATION NUMBER    3

       No.  Residual tot.,    conf., and orb.    Bnorm      Frequency 
      ----------------------------------------------------------------
         1    1.76205D-01  0.00D+00  1.76D-01  1.10D+01    0.00000D+00
         2    1.76979D-01  0.00D+00  1.77D-01  1.11D+01    1.64000D-02
         3    1.79333D-01  0.00D+00  1.79D-01  1.11D+01    3.28000D-02

 ** RSPCTL MICROITERATION NUMBER    4

       No.  Residual tot.,    conf., and orb.    Bnorm      Frequency 
      ----------------------------------------------------------------
         1    5.38237D-02  0.00D+00  5.38D-02  1.10D+01    0.00000D+00
         2    5.44207D-02  0.00D+00  5.44D-02  1.11D+01    1.64000D-02
         3    5.62655D-02  0.00D+00  5.63D-02  1.11D+01    3.28000D-02

 ** RSPCTL MICROITERATION NUMBER    5

       No.  Residual tot.,    conf., and orb.    Bnorm      Frequency 
      ----------------------------------------------------------------
         1    1.88558D-02  0.00D+00  1.89D-02  1.10D+01    0.00000D+00
         2    1.92273D-02  0.00D+00  1.92D-02  1.11D+01    1.64000D-02
         3    2.03869D-02  0.00D+00  2.04D-02  1.11D+01    3.28000D-02

 ** RSPCTL MICROITERATION NUMBER    6

       No.  Residual tot.,    conf., and orb.    Bnorm      Frequency 
      ----------------------------------------------------------------
         1    6.48288D-03  0.00D+00  6.48D-03  1.10D+01    0.00000D+00
         2    6.66562D-03  0.00D+00  6.67D-03  1.11D+01    1.64000D-02
         3    7.24093D-03  0.00D+00  7.24D-03  1.11D+01    3.28000D-02

 *** THE REQUESTED    3 SOLUTION VECTORS CONVERGED

 Convergence of RSP solution vectors, threshold = 1.00D-03
 ---------------------------------------------------------------
 (dimension of paired reduced space:   36)
 RSP solution vector no.    1; norm of residual   5.87D-04
 RSP solution vector no.    2; norm of residual   6.02D-04
 RSP solution vector no.    3; norm of residual   6.50D-04

 *** RSPCTL MICROITERATIONS CONVERGED

@ QRLRVE: SINGLET SOLUTION FOR SYMMETRY    1  ( A  )    LABEL   ZDIPLEN     FREQUENCY   0.000000D+00

@ QRLRVE:  << XDIPLEN  ; ZDIPLEN  >> (   0.00000):    1.220662940211E-13

@ QRLRVE:  << YDIPLEN  ; ZDIPLEN  >> (   0.00000):    1.657359109972E-13

@ QRLRVE:  << ZDIPLEN  ; ZDIPLEN  >> (   0.00000):     175.188353813    

@ QRLRVE: SINGLET SOLUTION FOR SYMMETRY    1  ( A  )    LABEL   ZDIPLEN     FREQUENCY   0.164000D-01

@ QRLRVE:  << XDIPLEN  ; ZDIPLEN  >> (   0.01640):    1.247239363934E-13

@ QRLRVE:  << YDIPLEN  ; ZDIPLEN  >> (   0.01640):    1.673366535686E-13

@ QRLRVE:  << ZDIPLEN  ; ZDIPLEN  >> (   0.01640):     175.355211858    

@ QRLRVE: SINGLET SOLUTION FOR SYMMETRY    1  ( A  )    LABEL   ZDIPLEN     FREQUENCY   0.328000D-01

@ QRLRVE:  << XDIPLEN  ; ZDIPLEN  >> (   0.03280):    1.336649681446E-13

@ QRLRVE:  << YDIPLEN  ; ZDIPLEN  >> (   0.03280):    1.728132285048E-13

@ QRLRVE:  << ZDIPLEN  ; ZDIPLEN  >> (   0.03280):     175.859198126    
 
 ======================================================================
 ---  L I N E A R   R E S P O N S E   F U N C T I O N S --- 
 ======================================================================

 The -<<A;B>>(omega_b) functions from vectors generated
 in a *QUADRA calculation of <<A;B,C>>(omega_b,omega_c)

 Note: the accuracy of off-diagonal elements will be linear
 in the convergence threshold THCLR =  1.00D-03


 Perturbation symmetry.     KSYMOP:           1
 Perturbation spin symmetry.TRPLET:           F
 Orbital variables.         KZWOPT:       89745
 Configuration variables.   KZCONF:           0
 Total number of variables. KZVAR :       89745

@ Singlet linear response function in a.u.

@ A operator, symmetry, frequency:   XDIPLEN    1 -0.000000
@ B operator, symmetry, frequency:   XDIPLEN    1  0.000000

@ Value of linear response -<<A;B>>(omega):    1348.693947583755

@ Singlet linear response function in a.u.

@ A operator, symmetry, frequency:   YDIPLEN    1 -0.000000
@ B operator, symmetry, frequency:   XDIPLEN    1  0.000000

@ Value of linear response -<<A;B>>(omega):     851.736048335570

@ Singlet linear response function in a.u.

@ A operator, symmetry, frequency:   ZDIPLEN    1 -0.000000
@ B operator, symmetry, frequency:   XDIPLEN    1  0.000000

@ Value of linear response -<<A;B>>(omega):       0.000000000000

@ Singlet linear response function in a.u.

@ A operator, symmetry, frequency:   XDIPLEN    1 -0.016400
@ B operator, symmetry, frequency:   XDIPLEN    1  0.016400

@ Value of linear response -<<A;B>>(omega):    1379.946641377111

@ Singlet linear response function in a.u.

@ A operator, symmetry, frequency:   YDIPLEN    1 -0.016400
@ B operator, symmetry, frequency:   XDIPLEN    1  0.016400

@ Value of linear response -<<A;B>>(omega):     875.600201587504

@ Singlet linear response function in a.u.

@ A operator, symmetry, frequency:   ZDIPLEN    1 -0.016400
@ B operator, symmetry, frequency:   XDIPLEN    1  0.016400

@ Value of linear response -<<A;B>>(omega):       0.000000000000

@ Singlet linear response function in a.u.

@ A operator, symmetry, frequency:   XDIPLEN    1 -0.000000
@ B operator, symmetry, frequency:   YDIPLEN    1  0.000000

@ Value of linear response -<<A;B>>(omega):     851.747565672911

@ Singlet linear response function in a.u.

@ A operator, symmetry, frequency:   YDIPLEN    1 -0.000000
@ B operator, symmetry, frequency:   YDIPLEN    1  0.000000

@ Value of linear response -<<A;B>>(omega):     894.711397950985

@ Singlet linear response function in a.u.

@ A operator, symmetry, frequency:   ZDIPLEN    1 -0.000000
@ B operator, symmetry, frequency:   YDIPLEN    1  0.000000

@ Value of linear response -<<A;B>>(omega):       0.000000000000

@ Singlet linear response function in a.u.

@ A operator, symmetry, frequency:   XDIPLEN    1 -0.016400
@ B operator, symmetry, frequency:   YDIPLEN    1  0.016400

@ Value of linear response -<<A;B>>(omega):     875.611838644203

@ Singlet linear response function in a.u.

@ A operator, symmetry, frequency:   YDIPLEN    1 -0.016400
@ B operator, symmetry, frequency:   YDIPLEN    1  0.016400

@ Value of linear response -<<A;B>>(omega):     913.365314868831

@ Singlet linear response function in a.u.

@ A operator, symmetry, frequency:   ZDIPLEN    1 -0.016400
@ B operator, symmetry, frequency:   YDIPLEN    1  0.016400

@ Value of linear response -<<A;B>>(omega):       0.000000000000

@ Singlet linear response function in a.u.

@ A operator, symmetry, frequency:   XDIPLEN    1 -0.000000
@ B operator, symmetry, frequency:   ZDIPLEN    1  0.000000

@ Value of linear response -<<A;B>>(omega):       0.000000000000

@ Singlet linear response function in a.u.

@ A operator, symmetry, frequency:   YDIPLEN    1 -0.000000
@ B operator, symmetry, frequency:   ZDIPLEN    1  0.000000

@ Value of linear response -<<A;B>>(omega):       0.000000000000

@ Singlet linear response function in a.u.

@ A operator, symmetry, frequency:   ZDIPLEN    1 -0.000000
@ B operator, symmetry, frequency:   ZDIPLEN    1  0.000000

@ Value of linear response -<<A;B>>(omega):     175.188353813470

@ Singlet linear response function in a.u.

@ A operator, symmetry, frequency:   XDIPLEN    1 -0.016400
@ B operator, symmetry, frequency:   ZDIPLEN    1  0.016400

@ Value of linear response -<<A;B>>(omega):       0.000000000000

@ Singlet linear response function in a.u.

@ A operator, symmetry, frequency:   YDIPLEN    1 -0.016400
@ B operator, symmetry, frequency:   ZDIPLEN    1  0.016400

@ Value of linear response -<<A;B>>(omega):       0.000000000000

@ Singlet linear response function in a.u.

@ A operator, symmetry, frequency:   ZDIPLEN    1 -0.016400
@ B operator, symmetry, frequency:   ZDIPLEN    1  0.016400

@ Value of linear response -<<A;B>>(omega):     175.355211858414


  Results from quadratic response calculation
 --------------------------------------------

@ B-freq = 0.000000  C-freq = 0.000000     beta(X;X,X) =  30369.62470007
@ B-freq = 0.000000  C-freq = 0.000000     beta(Y;X,X) =  31451.70243021
@ B-freq = 0.000000  C-freq = 0.000000     beta(Z;X,X) =      0.00000000
@ B-freq = 0.016400  C-freq = 0.000000     beta(X;X,X) =  32436.12778779
@ B-freq = 0.016400  C-freq = 0.000000     beta(Y;X,X) =  33311.60117689
@ B-freq = 0.016400  C-freq = 0.000000     beta(Z;X,X) =      0.00000000
@ B-freq = 0.000000  C-freq = 0.000000     beta(X;Y,X) = beta(Y,X,X)
@ B-freq = 0.000000  C-freq = 0.000000     beta(X;Y,X) =  31451.70004865
@ B-freq = 0.000000  C-freq = 0.000000     beta(Y;Y,X) =  31293.71432776
@ B-freq = 0.000000  C-freq = 0.000000     beta(Z;Y,X) =      0.00000000
@ B-freq = 0.016400  C-freq = 0.000000     beta(X;Y,X) =  33311.59869219
@ B-freq = 0.016400  C-freq = 0.000000     beta(Y;Y,X) =  32944.08786849
@ B-freq = 0.016400  C-freq = 0.000000     beta(Z;Y,X) =      0.00000000
@ B-freq = 0.000000  C-freq = 0.000000     beta(X;Z,X) = beta(Z,X,X)
@ B-freq = 0.000000  C-freq = 0.000000     beta(Y;Z,X) = beta(Z,Y,X)
@ B-freq = 0.000000  C-freq = 0.000000     beta(X;Z,X) =      0.00000000
@ B-freq = 0.000000  C-freq = 0.000000     beta(Y;Z,X) =      0.00000000
@ B-freq = 0.000000  C-freq = 0.000000     beta(Z;Z,X) =    -29.62953327
@ B-freq = 0.016400  C-freq = 0.000000     beta(X;Z,X) =      0.00000000
@ B-freq = 0.016400  C-freq = 0.000000     beta(Y;Z,X) =      0.00000000
@ B-freq = 0.016400  C-freq = 0.000000     beta(Z;Z,X) =    -30.16684129
@ B-freq = 0.000000  C-freq = 0.016400     beta(X;X,X) = beta(X,X,X)
@ B-freq = 0.000000  C-freq = 0.016400     beta(Y;X,X) = beta(Y,X,X)
@ B-freq = 0.000000  C-freq = 0.016400     beta(Z;X,X) = beta(Z,X,X)
@ B-freq = 0.016400  C-freq = 0.016400     beta(X;X,X) =  37187.58383656
@ B-freq = 0.016400  C-freq = 0.016400     beta(Y;X,X) =  37301.59540704
@ B-freq = 0.016400  C-freq = 0.016400     beta(Z;X,X) =      0.00000000
@ B-freq = 0.000000  C-freq = 0.016400     beta(X;Y,X) =  33538.74731494
@ B-freq = 0.000000  C-freq = 0.016400     beta(Y;Y,X) =  33139.16217795
@ B-freq = 0.000000  C-freq = 0.016400     beta(Z;Y,X) =      0.00000000
@ B-freq = 0.016400  C-freq = 0.016400     beta(X;Y,X) =  38075.32322656
@ B-freq = 0.016400  C-freq = 0.016400     beta(Y;Y,X) =  36911.81064117
@ B-freq = 0.016400  C-freq = 0.016400     beta(Z;Y,X) =      0.00000000
@ B-freq = 0.000000  C-freq = 0.016400     beta(X;Z,X) =      0.00000000
@ B-freq = 0.000000  C-freq = 0.016400     beta(Y;Z,X) =      0.00000000
@ B-freq = 0.000000  C-freq = 0.016400     beta(Z;Z,X) =    -30.07126024
@ B-freq = 0.016400  C-freq = 0.016400     beta(X;Z,X) =      0.00000000
@ B-freq = 0.016400  C-freq = 0.016400     beta(Y;Z,X) =      0.00000000
@ B-freq = 0.016400  C-freq = 0.016400     beta(Z;Z,X) =    -31.19360578
@ B-freq = 0.000000  C-freq = 0.000000     beta(X;X,Y) = beta(Y,X,X)
@ B-freq = 0.000000  C-freq = 0.000000     beta(Y;X,Y) = beta(Y,Y,X)
@ B-freq = 0.000000  C-freq = 0.000000     beta(Z;X,Y) = beta(Z,Y,X)
@ B-freq = 0.016400  C-freq = 0.000000     beta(X;X,Y) = beta(X,Y,X)
@ B-freq = 0.016400  C-freq = 0.000000     beta(Y;X,Y) = beta(Y,Y,X)
@ B-freq = 0.016400  C-freq = 0.000000     beta(Z;X,Y) = beta(Z,Y,X)
@ B-freq = 0.000000  C-freq = 0.000000     beta(X;Y,Y) = beta(Y,Y,X)
@ B-freq = 0.000000  C-freq = 0.000000     beta(X;Y,Y) =  31293.71251750
@ B-freq = 0.000000  C-freq = 0.000000     beta(Y;Y,Y) =  30218.61053202
@ B-freq = 0.000000  C-freq = 0.000000     beta(Z;Y,Y) =      0.00000000
@ B-freq = 0.016400  C-freq = 0.000000     beta(X;Y,Y) =  33139.16029007
@ B-freq = 0.016400  C-freq = 0.000000     beta(Y;Y,Y) =  31833.42686085
@ B-freq = 0.016400  C-freq = 0.000000     beta(Z;Y,Y) =      0.00000000
@ B-freq = 0.000000  C-freq = 0.000000     beta(X;Z,Y) = beta(Z,Y,X)
@ B-freq = 0.000000  C-freq = 0.000000     beta(Y;Z,Y) = beta(Z,Y,Y)
@ B-freq = 0.000000  C-freq = 0.000000     beta(X;Z,Y) =      0.00000000
@ B-freq = 0.000000  C-freq = 0.000000     beta(Y;Z,Y) =      0.00000000
@ B-freq = 0.000000  C-freq = 0.000000     beta(Z;Z,Y) =    -29.39585484
@ B-freq = 0.016400  C-freq = 0.000000     beta(X;Z,Y) =      0.00000000
@ B-freq = 0.016400  C-freq = 0.000000     beta(Y;Z,Y) =      0.00000000
@ B-freq = 0.016400  C-freq = 0.000000     beta(Z;Z,Y) =    -29.83704947
@ B-freq = 0.000000  C-freq = 0.016400     beta(X;X,Y) = beta(X,Y,X)
@ B-freq = 0.000000  C-freq = 0.016400     beta(Y;X,Y) = beta(Y,Y,X)
@ B-freq = 0.000000  C-freq = 0.016400     beta(Z;X,Y) = beta(Z,Y,X)
@ B-freq = 0.016400  C-freq = 0.016400     beta(X;X,Y) = beta(X,Y,X)
@ B-freq = 0.016400  C-freq = 0.016400     beta(Y;X,Y) = beta(Y,Y,X)
@ B-freq = 0.016400  C-freq = 0.016400     beta(Z;X,Y) = beta(Z,Y,X)
@ B-freq = 0.000000  C-freq = 0.016400     beta(X;Y,Y) = beta(X,Y,Y)
@ B-freq = 0.000000  C-freq = 0.016400     beta(Y;Y,Y) = beta(Y,Y,Y)
@ B-freq = 0.000000  C-freq = 0.016400     beta(Z;Y,Y) = beta(Z,Y,Y)
@ B-freq = 0.016400  C-freq = 0.016400     beta(X;Y,Y) =  37577.12770162
@ B-freq = 0.016400  C-freq = 0.016400     beta(Y;Y,Y) =  35503.28127411
@ B-freq = 0.016400  C-freq = 0.016400     beta(Z;Y,Y) =      0.00000000
@ B-freq = 0.000000  C-freq = 0.016400     beta(X;Z,Y) =      0.00000000
@ B-freq = 0.000000  C-freq = 0.016400     beta(Y;Z,Y) =      0.00000000
@ B-freq = 0.000000  C-freq = 0.016400     beta(Z;Z,Y) =    -29.73456532
@ B-freq = 0.016400  C-freq = 0.016400     beta(X;Z,Y) =      0.00000000
@ B-freq = 0.016400  C-freq = 0.016400     beta(Y;Z,Y) =      0.00000000
@ B-freq = 0.016400  C-freq = 0.016400     beta(Z;Z,Y) =    -30.65417808
@ B-freq = 0.000000  C-freq = 0.000000     beta(X;X,Z) = beta(Z,X,X)
@ B-freq = 0.000000  C-freq = 0.000000     beta(Y;X,Z) = beta(Z,Y,X)
@ B-freq = 0.000000  C-freq = 0.000000     beta(Z;X,Z) = beta(Z,Z,X)
@ B-freq = 0.016400  C-freq = 0.000000     beta(X;X,Z) = beta(X,Z,X)
@ B-freq = 0.016400  C-freq = 0.000000     beta(Y;X,Z) = beta(Y,Z,X)
@ B-freq = 0.016400  C-freq = 0.000000     beta(Z;X,Z) = beta(Z,Z,X)
@ B-freq = 0.000000  C-freq = 0.000000     beta(X;Y,Z) = beta(Z,Y,X)
@ B-freq = 0.000000  C-freq = 0.000000     beta(Y;Y,Z) = beta(Z,Y,Y)
@ B-freq = 0.000000  C-freq = 0.000000     beta(Z;Y,Z) = beta(Z,Z,Y)
@ B-freq = 0.016400  C-freq = 0.000000     beta(X;Y,Z) = beta(X,Z,Y)
@ B-freq = 0.016400  C-freq = 0.000000     beta(Y;Y,Z) = beta(Y,Z,Y)
@ B-freq = 0.016400  C-freq = 0.000000     beta(Z;Y,Z) = beta(Z,Z,Y)
@ B-freq = 0.000000  C-freq = 0.000000     beta(X;Z,Z) = beta(Z,Z,X)
@ B-freq = 0.000000  C-freq = 0.000000     beta(Y;Z,Z) = beta(Z,Z,Y)
@ B-freq = 0.000000  C-freq = 0.000000     beta(X;Z,Z) =    -29.62943753
@ B-freq = 0.000000  C-freq = 0.000000     beta(Y;Z,Z) =    -29.39577184
@ B-freq = 0.000000  C-freq = 0.000000     beta(Z;Z,Z) =      0.00000000
@ B-freq = 0.016400  C-freq = 0.000000     beta(X;Z,Z) =    -30.07116064
@ B-freq = 0.016400  C-freq = 0.000000     beta(Y;Z,Z) =    -29.73447937
@ B-freq = 0.016400  C-freq = 0.000000     beta(Z;Z,Z) =      0.00000000
@ B-freq = 0.000000  C-freq = 0.016400     beta(X;X,Z) = beta(X,Z,X)
@ B-freq = 0.000000  C-freq = 0.016400     beta(Y;X,Z) = beta(Y,Z,X)
@ B-freq = 0.000000  C-freq = 0.016400     beta(Z;X,Z) = beta(Z,Z,X)
@ B-freq = 0.016400  C-freq = 0.016400     beta(X;X,Z) = beta(X,Z,X)
@ B-freq = 0.016400  C-freq = 0.016400     beta(Y;X,Z) = beta(Y,Z,X)
@ B-freq = 0.016400  C-freq = 0.016400     beta(Z;X,Z) = beta(Z,Z,X)
@ B-freq = 0.000000  C-freq = 0.016400     beta(X;Y,Z) = beta(X,Z,Y)
@ B-freq = 0.000000  C-freq = 0.016400     beta(Y;Y,Z) = beta(Y,Z,Y)
@ B-freq = 0.000000  C-freq = 0.016400     beta(Z;Y,Z) = beta(Z,Z,Y)
@ B-freq = 0.016400  C-freq = 0.016400     beta(X;Y,Z) = beta(X,Z,Y)
@ B-freq = 0.016400  C-freq = 0.016400     beta(Y;Y,Z) = beta(Y,Z,Y)
@ B-freq = 0.016400  C-freq = 0.016400     beta(Z;Y,Z) = beta(Z,Z,Y)
@ B-freq = 0.000000  C-freq = 0.016400     beta(X;Z,Z) = beta(X,Z,Z)
@ B-freq = 0.000000  C-freq = 0.016400     beta(Y;Z,Z) = beta(Y,Z,Z)
@ B-freq = 0.000000  C-freq = 0.016400     beta(Z;Z,Z) = beta(Z,Z,Z)
@ B-freq = 0.016400  C-freq = 0.016400     beta(X;Z,Z) =    -30.89226392
@ B-freq = 0.016400  C-freq = 0.016400     beta(Y;Z,Z) =    -30.33220404
@ B-freq = 0.016400  C-freq = 0.016400     beta(Z;Z,Z) =      0.00000000

  Total CPU  time used in RESPONSE: 24 minutes  2 seconds
  Total wall time used in RESPONSE: 24 minutes 11 seconds


                   .-------------------------------------------.
                   | End of Dynamic Property Section (RESPONS) |
                   `-------------------------------------------'

  Total CPU  time used in DALTON: 32 minutes 59 seconds
  Total wall time used in DALTON: 33 minutes 10 seconds

 
     Date and time (Linux)  : Thu May 29 17:19:40 2025
     Host name              : xm009                                   
