

     ************************************************************************
     *************** Dalton - An Electronic Structure Program ***************
     ************************************************************************

    This is output from DALTON release Dalton2020.0 (2020)
         ( Web site: http://daltonprogram.org )

   ----------------------------------------------------------------------------

    NOTE:
     
    Dalton is an experimental code for the evaluation of molecular
    properties using (MC)SCF, DFT, CI, and CC wave functions.
    The authors accept no responsibility for the performance of
    the code or for the correctness of the results.
     
    The code (in whole or part) is provided under a licence and
    is not to be reproduced for further distribution without
    the written permission of the authors or their representatives.
     
    See the home page "http://daltonprogram.org" for further information.
     
    If results obtained with this code are published,
    the appropriate citations would be both of:
     
       K. Aidas, C. Angeli, K. L. Bak, V. Bakken, R. Bast,
       L. Boman, O. Christiansen, R. Cimiraglia, S. Coriani,
       P. Dahle, E. K. Dalskov, U. Ekstroem,
       T. Enevoldsen, J. J. Eriksen, P. Ettenhuber, B. Fernandez,
       L. Ferrighi, H. Fliegl, L. Frediani, K. Hald, A. Halkier,
       C. Haettig, H. Heiberg, T. Helgaker, A. C. Hennum,
       H. Hettema, E. Hjertenaes, S. Hoest, I.-M. Hoeyvik,
       M. F. Iozzi, B. Jansik, H. J. Aa. Jensen, D. Jonsson,
       P. Joergensen, J. Kauczor, S. Kirpekar,
       T. Kjaergaard, W. Klopper, S. Knecht, R. Kobayashi, H. Koch,
       J. Kongsted, A. Krapp, K. Kristensen, A. Ligabue,
       O. B. Lutnaes, J. I. Melo, K. V. Mikkelsen, R. H. Myhre,
       C. Neiss, C. B. Nielsen, P. Norman, J. Olsen,
       J. M. H. Olsen, A. Osted, M. J. Packer, F. Pawlowski,
       T. B. Pedersen, P. F. Provasi, S. Reine, Z. Rinkevicius,
       T. A. Ruden, K. Ruud, V. Rybkin, P. Salek, C. C. M. Samson,
       A. Sanchez de Meras, T. Saue, S. P. A. Sauer,
       B. Schimmelpfennig, K. Sneskov, A. H. Steindal,
       K. O. Sylvester-Hvid, P. R. Taylor, A. M. Teale,
       E. I. Tellgren, D. P. Tew, A. J. Thorvaldsen, L. Thoegersen,
       O. Vahtras, M. A. Watson, D. J. D. Wilson, M. Ziolkowski
       and H. Agren,
       "The Dalton quantum chemistry program system",
       WIREs Comput. Mol. Sci. 2014, 4:269–284 (doi: 10.1002/wcms.1172)
     
    and
     
       Dalton, a molecular electronic structure program,
       Release Dalton2020.0 (2020), see http://daltonprogram.org
   ----------------------------------------------------------------------------

    Authors in alphabetical order (Major contribution(s) in parenthesis):

  Kestutis Aidas,           Vilnius University,           Lithuania   (QM/MM)
  Celestino Angeli,         University of Ferrara,        Italy       (NEVPT2)
  Keld L. Bak,              UNI-C,                        Denmark     (AOSOPPA, non-adiabatic coupling, magnetic properties)
  Vebjoern Bakken,          University of Oslo,           Norway      (DALTON; geometry optimizer, symmetry detection)
  Radovan Bast,             UiT The Arctic U. of Norway,  Norway      (DALTON installation and execution frameworks)
  Pablo Baudin,             University of Valencia,       Spain       (Cholesky excitation energies)
  Linus Boman,              NTNU,                         Norway      (Cholesky decomposition and subsystems)
  Bruno N. Cabral Tenorio,  Technical Univ. of Denmark,   Denmark     (Lanczos-based CC methods)
  Ove Christiansen,         Aarhus University,            Denmark     (CC module)
  Renzo Cimiraglia,         University of Ferrara,        Italy       (NEVPT2)
  Sonia Coriani,            Technical Univ. of Denmark,   Denmark     (CC and RESPONS modules)
  Janusz Cukras,            University of Warsaw,         Poland      (MChD in RESPONS)
  Paal Dahle,               University of Oslo,           Norway      (Parallelization)
  Erik K. Dalskov,          UNI-C,                        Denmark     (SOPPA)
  Thomas Enevoldsen,        Univ. of Southern Denmark,    Denmark     (SOPPA)
  Janus J. Eriksen,         Aarhus University,            Denmark     (Polarizable embedding, TDA)
  Rasmus Faber,             Technical Univ. of Denmark,   Denmark     (Vib.avg. NMR w. SOPPA, parallel AO-SOPPA, CVS-CC and EOMCC)
  Tobias Fahleson,          KTH Stockholm,                Sweden      (Damped cubic response)
  Berta Fernandez,          U. of Santiago de Compostela, Spain       (Doublet spin, ESR in RESPONS)
  Lara Ferrighi,            Aarhus University,            Denmark     (PCM Cubic response)
  Heike Fliegl,             University of Oslo,           Norway      (CCSD(R12))
  Luca Frediani,            UiT The Arctic U. of Norway,  Norway      (PCM)
  Emmanuel Fromager,        Univ. Strasbourg,             France      (MC-srDFT)
  Bin Gao,                  UiT The Arctic U. of Norway,  Norway      (Gen1Int library)
  Andre S. P. Gomes,        CNRS/Universite de Lille,     France      (Frozen density embedding)
  Christof Haettig,         Ruhr-University Bochum,       Germany     (CC module)
  Kasper Hald,              Aarhus University,            Denmark     (CC module)
  Asger Halkier,            Aarhus University,            Denmark     (CC module)
  Frederik Beyer Hansen,    University of Copenhagen,     Denmark     (Parallel AO-SOPPA)
  Erik D. Hedegaard,        Univ. of Southern Denmark,    Denmark     (Polarizable embedding, QM/MM, and MC-srDFT)
  Hanne Heiberg,            University of Oslo,           Norway      (Geometry analysis, selected one-electron integrals)
  Trygve Helgaker,          University of Oslo,           Norway      (DALTON; ABACUS, ERI, DFT modules, London, and much more)
  Alf Christian Hennum,     University of Oslo,           Norway      (Parity violation)
  Hinne Hettema,            University of Auckland,       New Zealand (Quadratic response in RESPONS; SIRIUS supersymmetry)
  Eirik Hjertenaes,         NTNU,                         Norway      (Cholesky decomposition)
  Pi A. B. Haase,           University of Copenhagen,     Denmark     (Triplet AO-SOPPA)
  Maria Francesca Iozzi,    University of Oslo,           Norway      (RPA)
  Christoph Jacob           TU Braunschweig               Germany     (Frozen density embedding)
  Brano Jansik              Technical Univ. of Ostrava    Czech Rep.  (DFT cubic response)
  Hans Joergen Aa. Jensen,  Univ. of Southern Denmark,    Denmark     (DALTON; SIRIUS, RESPONS, ABACUS, MC-srDFT, and much more)
  Dan Jonsson,              UiT The Arctic U. of Norway,  Norway      (Cubic response in RESPONS module)
  Poul Joergensen,          Aarhus University,            Denmark     (RESPONS, ABACUS, and CC modules)
  Maciej Kaminski,          University of Warsaw,         Poland      (CPPh in RESPONS)
  Joanna Kauczor,           Linkoeping University,        Sweden      (Complex polarization propagator (CPP) module)
  Sheela Kirpekar,          Univ. of Southern Denmark,    Denmark     (Mass-velocity & Darwin integrals)
  Erik Kjellgren,           Univ. of Southern Denmark,    Denmark     (MC-srDFT)
  Wim Klopper,              KIT Karlsruhe,                Germany     (R12 code in CC, SIRIUS, and ABACUS modules)
  Stefan Knecht,            ETH Zurich,                   Switzerland (Parallel CI and MCSCF, MC-srDFT)
  Rika Kobayashi,           Australian National Univ.,    Australia   (DIIS in CC, London in MCSCF)
  Henrik Koch,              NTNU,                         Norway      (CC module, Cholesky decomposition)
  Jacob Kongsted,           Univ. of Southern Denmark,    Denmark     (Polarizable embedding, polarizable density embedding, QM/MM)
  Andrea Ligabue,           University of Modena,         Italy       (CTOCD, AOSOPPA)
  Nanna H. List             Univ. of Southern Denmark,    Denmark     (Polarizable embedding)
  Ola B. Lutnaes,           University of Oslo,           Norway      (DFT Hessian)
  Juan I. Melo,             University of Buenos Aires,   Argentina   (LRESC, Relativistic Effects on NMR Shieldings)
  Kurt V. Mikkelsen,        University of Copenhagen,     Denmark     (MC-SCRF and QM/MM)
  Rolf H. Myhre,            NTNU,                         Norway      (Subsystems and CC3)
  Christian Neiss,          Univ. Erlangen-Nuernberg,     Germany     (CCSD(R12))
  Christian B. Nielsen,     University of Copenhagen,     Denmark     (QM/MM)
  Patrick Norman,           KTH Stockholm,                Sweden      (Cubic response and complex frequency response in RESPONS)
  Jeppe Olsen,              Aarhus University,            Denmark     (SIRIUS CI/density modules)
  Jogvan Magnus H. Olsen,   Aarhus University,            Denmark     (Polarizable embedding and polarizable density embedding)
  Anders Osted,             Copenhagen University,        Denmark     (QM/MM)
  Martin J. Packer,         University of Sheffield,      UK          (SOPPA)
  Filip Pawlowski,          Kazimierz Wielki University,  Poland      (CC3)
  Morten N. Pedersen,       Univ. of Southern Denmark,    Denmark     (Polarizable embedding)
  Thomas B. Pedersen,       University of Oslo,           Norway      (Cholesky decomposition)
  Patricio F. Provasi,      University of Northeastern,   Argentina   (Analysis of coupling constants in localized orbitals)
  Peter Reinholdt,          Univ. of Southern Denmark,    Denmark     (Polarizable embedding and polarizable density embedding)
  Zilvinas Rinkevicius,     KTH Stockholm,                Sweden      (open-shell DFT, ESR)
  Elias Rudberg,            KTH Stockholm,                Sweden      (DFT grid and basis info)
  Torgeir A. Ruden,         University of Oslo,           Norway      (Numerical derivatives in ABACUS)
  Kenneth Ruud,             UiT The Arctic U. of Norway,  Norway      (DALTON; ABACUS magnetic properties and much more)
  Pawel Salek,              KTH Stockholm,                Sweden      (DALTON; DFT code)
  Claire C. M. Samson       University of Karlsruhe       Germany     (Boys localization, r12 integrals in ERI)
  Alfredo Sanchez de Meras, University of Valencia,       Spain       (CC module, Cholesky decomposition)
  Trond Saue,               Paul Sabatier University,     France      (direct Fock matrix construction)
  Stephan P. A. Sauer,      University of Copenhagen,     Denmark     (SOPPA(CCSD), SOPPA prop., AOSOPPA, vibrational g-factors)
  Bernd Schimmelpfennig,    Forschungszentrum Karlsruhe,  Germany     (AMFI module)
  Anna K. Schnack-Petersen, University of Copenhagen,     Denmark     (RPA(D) and HRPA(D) properties in AOSOPPA)
  Kristian Sneskov,         Aarhus University,            Denmark     (Polarizable embedding, QM/MM)
  Arnfinn H. Steindal,      UiT The Arctic U. of Norway,  Norway      (parallel QM/MM, polarizable embedding)
  Casper Steinmann,         Aalborg University,           Denmark     (QFIT, polarizable embedding)
  K. O. Sylvester-Hvid,     University of Copenhagen,     Denmark     (MC-SCRF)
  Peter R. Taylor,          VLSCI/Univ. of Melbourne,     Australia   (Symmetry handling ABACUS, integral transformation)
  Andrew M. Teale,          University of Nottingham,     England     (DFT-AC, DFT-D)
  David P. Tew,             University of Bristol,        England     (CCSD(R12))
  Julien Toulouse,          Sorbonne Univ.,               France      (MC-srDFT)
  Olav Vahtras,             KTH Stockholm,                Sweden      (Triplet response, spin-orbit, ESR, TDDFT, open-shell DFT)
  Lucas Visscher,           Vrije Universiteit Amsterdam, Netherlands (Frozen density embedding)
  David J. Wilson,          La Trobe University,          Australia   (DFT Hessian and DFT magnetizabilities)
  Hans Agren,               KTH Stockholm,                Sweden      (SIRIUS module, RESPONS, MC-SCRF solvation)
 --------------------------------------------------------------------------------

     Date and time (Linux)  : Sat May 31 01:33:08 2025
     Host name              : xm052                                   

 * Work memory size             :   131072000 = 1000.00 megabytes.

 * Directories for basis set searches:
   1) /gpfs/projects/rjh/adrian/summer2025/beta_projects/raw_data/NLO/dalton/hf/n11/dipole
   2) /gpfs/projects/rjh/adrian/dalton/build/basis


Compilation information
-----------------------

 Who compiled             | ahurtado
 Host                     | milan2
 System                   | Linux-5.14.0-427.42.1.el9_4.x86_64
 CMake generator          | Unix Makefiles
 Processor                | x86_64
 64-bit integers          | OFF
 MPI                      | ON
 Fortran compiler         | /gpfs/software/openmpi/milan/gcc13.2/4.1.6/bin/mpi
                          | f90
 Fortran compiler version | GNU Fortran (GCC) 13.2.0
 C compiler               | /gpfs/software/openmpi/milan/gcc13.2/4.1.6/bin/mpi
                          | cc
 C compiler version       | gcc (GCC) 13.2.0
 C++ compiler             | /gpfs/software/openmpi/milan/gcc13.2/4.1.6/bin/mpi
                          | cxx
 C++ compiler version     | unknown
 BLAS                     | /gpfs/software/intel/oneAPI/2024_2/mkl/2024.2/lib/
                          | intel64/libmkl_gf_lp64.so;/gpfs/software/intel/one
                          | API/2024_2/mkl/2024.2/lib/intel64/libmkl_sequentia
                          | l.so;/gpfs/software/intel/oneAPI/2024_2/mkl/2024.2
                          | /lib/intel64/libmkl_core.so;/usr/lib64/libpthread.
                          | a;/usr/lib64/libm.so
 LAPACK                   | /gpfs/software/intel/oneAPI/2024_2/mkl/2024.2/lib/
                          | intel64/libmkl_lapack95_lp64.a;/gpfs/software/inte
                          | l/oneAPI/2024_2/mkl/2024.2/lib/intel64/libmkl_gf_l
                          | p64.so
 Static linking           | OFF
 Last Git revision        | 66052b3af5ea7225e31178bf9a8b031913c72190
 Git branch               | (HEAD detached at Dalton2020.0)
 Configuration time       | 2025-04-10 16:02:31.569498

 * MPI parallel run using 576 processes.


   Content of the .dal input file
 ----------------------------------

**DALTON INPUT
.RUN RESPONSE
.DIRECT
**WAVE FUNCTIONS
.HF
**PROPERTIES
**RESPONSE
*QUADRA
.DIPLEN
.FREQUENCIES
2
0.0 0.0164
**END OF DALTON INPUT


   Content of the .mol file
 ----------------------------

BASIS
d-aug-cc-pVTZ
blah
blah
Atomtype=4 Angstrom Charge=0 Nosymmetry
Charge=6 Atoms=22
C_a -1.8122620012835433 -0.9657169975135246 0.0
C_b -0.47990300170099354 -0.6199950004480934 0.0
C_c 0.0 0.7347809988410869 0.0
C_d 1.33440499976634 1.0741329987742174 0.0
C_e 1.822035999616516 2.426000999954059 0.0
C_f 3.1583140009529345 2.7579619976610776 0.0
C_g 3.6555709988538028 4.106602001980516 0.0
C_h 4.993888999504442 4.428659998534144 0.0
C_i 5.504787000539432 5.773048000464584 0.0
C_j 6.845650999753135 6.080100002436257 0.0
C_k 7.378550998559059 7.417604001534356 0.0
C_l 8.72333499967156 7.6973089984010015 0.0
C_m 9.297041001506793 9.019440997499384 0.0
C_n 10.650860999830723 9.227377001932195 0.0
C_o -7.171002997440654 -6.1446729997378835 0.0
C_p -5.8529999987804215 -5.769760000200263 0.0
C_q -5.403531999922006 -4.399889998867221 0.0
C_r -4.078087002227869 -4.038480998483878 0.0
C_s -3.6145510018522695 -2.6759249988010225 0.0
C_t -2.2848440003198527 -2.323654999973166 0.0
C_u -8.882541000978819 -7.916753998612093 0.0
C_v -7.585979998306329 -7.530289002356054 0.0
Charge=7 Atoms=2
N_a 11.282005002092449 10.441887998568792 0.0
N_b -9.247999000789601 -9.328862998985626 0.0
Charge=8 Atoms=2
O_a -10.462299998741914 -9.564712000592682 0.0
O_b -8.352355998769958 -10.176287997998127 0.0
Charge=1 Atoms=24
H_a -2.5644380022665603 -0.16330899797727702 0.0
H_b 0.27023400011273024 -1.4248459994951204 0.0
H_c -0.7479299994635872 1.5412280016472666 0.0
H_d 2.080228000789063 0.26520700182338897 0.0
H_e 1.0786390009325657 3.23667100094632 0.0
H_f 3.899079999338471 1.9442640023351856 0.0
H_g 2.9178589985700296 4.922449001834255 0.0
H_h 5.727755998175488 3.608514000063327 0.0
H_i 4.7752170001956085 6.596111998494022 0.0
H_j 7.568522997762397 5.24983899854614 0.0
H_k 6.662887997566072 8.252460999459268 0.0
H_l 9.424485998300522 6.848155997665916 0.0
H_m 8.61886099820631 9.883707997885121 0.0
H_n 11.32836600055659 8.364257998587286 0.0
H_o 10.750808001385902 11.301844998743242 0.0
H_p 12.288097998525666 10.505195997748313 0.0
H_q -7.948397001899416 -5.3685600010118515 0.0
H_r -5.083876002228872 -6.5560159978200385 0.0
H_s -6.168483000242109 -3.610195000266058 0.0
H_t -3.317323000168205 -4.833130000669942 0.0
H_u -1.5302499981574886 -3.124286001268895 0.0
H_v -4.371808998512132 -1.878615002552244 0.0
H_w -9.751719998862473 -7.256207000195811 0.0
H_x -6.820033001807389 -8.315199000698087 0.0


       *******************************************************************
       *********** Output from DALTON general input processing ***********
       *******************************************************************

 --------------------------------------------------------------------------------
   Overall default print level:    0
   Print level for DALTON.STAT:    1

    Parallel calculation using MPI
    AO-direct calculation (in sections where implemented)
    HERMIT 1- and 2-electron integral sections will be executed
    "Old" integral transformation used (limited to max 255 basis functions)
    Wave function sections will be executed (SIRIUS module)
    Dynamic molecular response properties section will be executed (RESPONSE module)
 --------------------------------------------------------------------------------


   ****************************************************************************
   *************** Output of molecule and basis set information ***************
   ****************************************************************************


    The two title cards from your ".mol" input:
    ------------------------------------------------------------------------
 1: blah                                                                    
 2: blah                                                                    
    ------------------------------------------------------------------------

  Coordinates are entered in Angstrom and converted to atomic units.
          - Conversion factor : 1 bohr = 0.52917721 A

  Atomic type no.    1
  --------------------
  Nuclear charge:   6.00000
  Number of symmetry independent centers:   22
  Number of basis sets to read;    2
  Basis set file used for this atomic type with Z =   6 :
     "/gpfs/projects/rjh/adrian/dalton/build/basis/aug-cc-pVTZ"

  Atomic type no.    2
  --------------------
  Nuclear charge:   7.00000
  Number of symmetry independent centers:    2
  Number of basis sets to read;    2
  Basis set file used for this atomic type with Z =   7 :
     "/gpfs/projects/rjh/adrian/dalton/build/basis/aug-cc-pVTZ"

  Atomic type no.    3
  --------------------
  Nuclear charge:   8.00000
  Number of symmetry independent centers:    2
  Number of basis sets to read;    2
  Basis set file used for this atomic type with Z =   8 :
     "/gpfs/projects/rjh/adrian/dalton/build/basis/aug-cc-pVTZ"

  Atomic type no.    4
  --------------------
  Nuclear charge:   1.00000
  Number of symmetry independent centers:   24
  Number of basis sets to read;    2
  Basis set file used for this atomic type with Z =   1 :
     "/gpfs/projects/rjh/adrian/dalton/build/basis/aug-cc-pVTZ"


                         SYMGRP: Point group information
                         -------------------------------

@    Point group: C1 


                                 Isotopic Masses
                                 ---------------

                           C_a        12.000000
                           C_b        12.000000
                           C_c        12.000000
                           C_d        12.000000
                           C_e        12.000000
                           C_f        12.000000
                           C_g        12.000000
                           C_h        12.000000
                           C_i        12.000000
                           C_j        12.000000
                           C_k        12.000000
                           C_l        12.000000
                           C_m        12.000000
                           C_n        12.000000
                           C_o        12.000000
                           C_p        12.000000
                           C_q        12.000000
                           C_r        12.000000
                           C_s        12.000000
                           C_t        12.000000
                           C_u        12.000000
                           C_v        12.000000
                           N_a        14.003074
                           N_b        14.003074
                           O_a        15.994915
                           O_b        15.994915
                           H_a         1.007825
                           H_b         1.007825
                           H_c         1.007825
                           H_d         1.007825
                           H_e         1.007825
                           H_f         1.007825
                           H_g         1.007825
                           H_h         1.007825
                           H_i         1.007825
                           H_j         1.007825
                           H_k         1.007825
                           H_l         1.007825
                           H_m         1.007825
                           H_n         1.007825
                           H_o         1.007825
                           H_p         1.007825
                           H_q         1.007825
                           H_r         1.007825
                           H_s         1.007825
                           H_t         1.007825
                           H_u         1.007825
                           H_v         1.007825
                           H_w         1.007825
                           H_x         1.007825

                       Total mass:   348.183778 amu
                       Natural abundance:  77.170 %

 Center-of-mass coordinates (a.u.):   -0.209926   -0.214777    0.000000
 Center-of-mass coordinates (Angs):   -0.111088   -0.113655    0.000000


  Atoms and basis sets
  --------------------

  Number of atom types :    4
  Total number of atoms:   50

  Basis set used is "d-aug-cc-pVTZ" from the basis set library.

  label    atoms   charge   prim   cont     basis
  ----------------------------------------------------------------------
  C_         22    6.0000    74    62      [12s7p4d3f|6s5p4d3f]                               
  N_          2    7.0000    74    62      [12s7p4d3f|6s5p4d3f]                               
  O_          2    8.0000    74    62      [12s7p4d3f|6s5p4d3f]                               
  H_         24    1.0000    34    32      [7s4p3d|5s4p3d]                                    
  ----------------------------------------------------------------------
  total:     50  186.0000  2740  2380
  ----------------------------------------------------------------------
  Spherical harmonic basis used.

  Threshold for neglecting AO integrals:  1.00D-12

  Max    interatomic separation is   30.3378 Angstrom (   57.3301 Bohr)
  between atoms   42 and   25, "H_p   " and "O_a   ".

  Min HX interatomic separation is    1.0081 Angstrom (    1.9050 Bohr)

  Min YX interatomic separation is    1.2330 Angstrom (    2.3300 Bohr)


  Bond distances (Angstrom):
  --------------------------

                  atom 1     atom 2       distance
                  ------     ------       --------
  bond distance:  C_b        C_a          1.376483
  bond distance:  C_c        C_b          1.437263
  bond distance:  C_d        C_c          1.376879
  bond distance:  C_e        C_d          1.437126
  bond distance:  C_f        C_e          1.376894
  bond distance:  C_g        C_f          1.437392
  bond distance:  C_h        C_g          1.376523
  bond distance:  C_i        C_h          1.438192
  bond distance:  C_j        C_i          1.375572
  bond distance:  C_k        C_j          1.439757
  bond distance:  C_l        C_k          1.373564
  bond distance:  C_m        C_l          1.441240
  bond distance:  C_n        C_m          1.369696
  bond distance:  C_p        C_o          1.370289
  bond distance:  C_q        C_p          1.441723
  bond distance:  C_r        C_q          1.373834
  bond distance:  C_s        C_r          1.439244
  bond distance:  C_t        C_a          1.437821
  bond distance:  C_t        C_s          1.375578
  bond distance:  C_v        C_o          1.446422
  bond distance:  C_v        C_u          1.352932
  bond distance:  N_a        C_n          1.368715
  bond distance:  N_b        C_u          1.458633
  bond distance:  O_a        N_b          1.236993
  bond distance:  O_b        N_b          1.233007
  bond distance:  H_a        C_a          1.099831
  bond distance:  H_b        C_b          1.100223
  bond distance:  H_c        C_c          1.099889
  bond distance:  H_d        C_d          1.100279
  bond distance:  H_e        C_e          1.099920
  bond distance:  H_f        C_f          1.100381
  bond distance:  H_g        C_g          1.099921
  bond distance:  H_h        C_h          1.100545
  bond distance:  H_i        C_i          1.099867
  bond distance:  H_j        C_j          1.100853
  bond distance:  H_k        C_k          1.099618
  bond distance:  H_l        C_l          1.101215
  bond distance:  H_m        C_m          1.098583
  bond distance:  H_n        C_n          1.097264
  bond distance:  H_o        N_a          1.010790
  bond distance:  H_p        N_a          1.008083
  bond distance:  H_q        C_o          1.098496
  bond distance:  H_r        C_p          1.099886
  bond distance:  H_s        C_q          1.099440
  bond distance:  H_t        C_r          1.100104
  bond distance:  H_u        C_t          1.100192
  bond distance:  H_v        C_s          1.099610
  bond distance:  H_w        C_u          1.091693
  bond distance:  H_x        C_v          1.096703


  Bond angles (degrees):
  ----------------------

                  atom 1     atom 2     atom 3         angle
                  ------     ------     ------         -----
  bond angle:     C_b        C_a        C_t          123.735
  bond angle:     C_b        C_a        H_a          118.603
  bond angle:     C_t        C_a        H_a          117.662
  bond angle:     C_a        C_b        C_c          124.052
  bond angle:     C_a        C_b        H_b          118.438
  bond angle:     C_c        C_b        H_b          117.509
  bond angle:     C_b        C_c        C_d          123.774
  bond angle:     C_b        C_c        H_c          117.650
  bond angle:     C_d        C_c        H_c          118.576
  bond angle:     C_c        C_d        C_e          124.103
  bond angle:     C_c        C_d        H_d          118.407
  bond angle:     C_e        C_d        H_d          117.489
  bond angle:     C_d        C_e        C_f          123.786
  bond angle:     C_d        C_e        H_e          117.644
  bond angle:     C_f        C_e        H_e          118.570
  bond angle:     C_e        C_f        C_g          124.191
  bond angle:     C_e        C_f        H_f          118.363
  bond angle:     C_g        C_f        H_f          117.447
  bond angle:     C_f        C_g        C_h          123.770
  bond angle:     C_f        C_g        H_g          117.640
  bond angle:     C_h        C_g        H_g          118.590
  bond angle:     C_g        C_h        C_i          124.339
  bond angle:     C_g        C_h        H_h          118.292
  bond angle:     C_i        C_h        H_h          117.370
  bond angle:     C_h        C_i        C_j          123.706
  bond angle:     C_h        C_i        H_i          117.638
  bond angle:     C_j        C_i        H_i          118.656
  bond angle:     C_i        C_j        C_k          124.622
  bond angle:     C_i        C_j        H_j          118.147
  bond angle:     C_k        C_j        H_j          117.232
  bond angle:     C_j        C_k        C_l          123.473
  bond angle:     C_j        C_k        H_k          117.672
  bond angle:     C_l        C_k        H_k          118.855
  bond angle:     C_k        C_l        C_m          125.207
  bond angle:     C_k        C_l        H_l          117.797
  bond angle:     C_m        C_l        H_l          116.996
  bond angle:     C_l        C_m        C_n          122.189
  bond angle:     C_l        C_m        H_m          118.422
  bond angle:     C_n        C_m        H_m          119.389
  bond angle:     C_m        C_n        N_a          126.191
  bond angle:     C_m        C_n        H_n          119.398
  bond angle:     N_a        C_n        H_n          114.410
  bond angle:     C_p        C_o        C_v          122.551
  bond angle:     C_p        C_o        H_q          119.169
  bond angle:     C_v        C_o        H_q          118.280
  bond angle:     C_o        C_p        C_q          124.044
  bond angle:     C_o        C_p        H_r          118.490
  bond angle:     C_q        C_p        H_r          117.466
  bond angle:     C_p        C_q        C_r          123.417
  bond angle:     C_p        C_q        H_s          117.747
  bond angle:     C_r        C_q        H_s          118.836
  bond angle:     C_q        C_r        C_s          124.040
  bond angle:     C_q        C_r        H_t          118.500
  bond angle:     C_s        C_r        H_t          117.460
  bond angle:     C_r        C_s        C_t          123.626
  bond angle:     C_r        C_s        H_v          117.688
  bond angle:     C_t        C_s        H_v          118.686
  bond angle:     C_a        C_t        C_s          124.027
  bond angle:     C_a        C_t        H_u          117.507
  bond angle:     C_s        C_t        H_u          118.466
  bond angle:     C_v        C_u        N_b          121.108
  bond angle:     C_v        C_u        H_w          126.169
  bond angle:     N_b        C_u        H_w          112.724
  bond angle:     C_o        C_v        C_u          123.270
  bond angle:     C_o        C_v        H_x          119.028
  bond angle:     C_u        C_v        H_x          117.702
  bond angle:     C_n        N_a        H_o          120.837
  bond angle:     C_n        N_a        H_p          121.060
  bond angle:     H_o        N_a        H_p          118.103
  bond angle:     C_u        N_b        O_a          115.501
  bond angle:     C_u        N_b        O_b          118.905
  bond angle:     O_a        N_b        O_b          125.593




 Principal moments of inertia (u*A**2) and principal axes
 --------------------------------------------------------

   IA     132.140063          0.723824    0.689984    0.000000
   IB   30250.886736         -0.689984    0.723824    0.000000
   IC   30383.026799          0.000000    0.000000    1.000000


 Rotational constants
 --------------------

@    The molecule is planar.

               A                   B                   C

           3824.5706             16.7063             16.6336 MHz
            0.127574            0.000557            0.000555 cm-1


@  Nuclear repulsion energy : 1581.530184833914 Hartree


                     .---------------------------------------.
                     | Starting in Integral Section (HERMIT) |
                     `---------------------------------------'



 ***************************************************************************************
 ****************** Output from **INTEGRALS input processing (HERMIT) ******************
 ***************************************************************************************


 - Using defaults, no **INTEGRALS input found

 Default print level:        1

 Calculation of one-electron Hamiltonian integrals.

 Center of mass  (bohr):     -0.209925642482     -0.214776861006      0.000000000000
 Operator center (bohr):      0.000000000000      0.000000000000      0.000000000000
 Gauge origin    (bohr):      0.000000000000      0.000000000000      0.000000000000
 Dipole origin   (bohr):      0.000000000000      0.000000000000      0.000000000000


     ************************************************************************
     ************************** Output from HERINT **************************
     ************************************************************************



                      Nuclear contribution to dipole moments
                      --------------------------------------

                 au               Debye          C m (/(10**-30)

      x      0.00001132         0.00002877         0.00009597
      y     -0.00001130        -0.00002872        -0.00009581
      z      0.00000000         0.00000000         0.00000000


  Time used in ONEDRV     is       9.66 seconds
  Time used in HUCKEL     is       1.99 seconds
  Time used in OVERLAP    is       1.16 seconds
  Time used in POPOVLP    is       2.25 seconds
  Time used in R2         is       1.39 seconds
  Time used in R4         is       1.64 seconds
  Time used in DIPLEN     is       2.00 seconds
  Time used in QUADRUP    is       3.89 seconds
  Time used in KINENE     is       1.83 seconds
  Time used in GABGEN     is      19.72 seconds
  Total CPU  time used in HERMIT:  45.54 seconds
  Total wall time used in HERMIT:  45.80 seconds


                        .----------------------------------.
                        | End of Integral Section (HERMIT) |
                        `----------------------------------'



                   .--------------------------------------------.
                   | Starting in Wave Function Section (SIRIUS) |
                   `--------------------------------------------'



@ Primary orbitals are deleted during canonical orthonormalization
@   because of detected numerical linear dependence or too large coefficients.
@ Eigenvalue threshold for num. lin. dep. =  1.00D-06

@ 167 MO components are deleted in symmetry    1
 Overlap eigenvalues of the deleted orbitals:
  9.69D-07  9.66D-07  9.61D-07  9.55D-07  9.48D-07
  9.19D-07  9.04D-07  8.82D-07  8.24D-07  7.73D-07
  7.41D-07  7.11D-07  6.75D-07  6.74D-07  6.52D-07
  6.33D-07  5.91D-07  5.73D-07  5.57D-07  5.37D-07
  5.27D-07  5.20D-07  4.97D-07  4.87D-07  4.79D-07
  4.54D-07  4.43D-07  4.30D-07  4.21D-07  4.16D-07
  3.99D-07  3.89D-07  3.77D-07  3.67D-07  3.50D-07
  3.37D-07  3.26D-07  3.21D-07  3.15D-07  3.02D-07
  2.99D-07  2.90D-07  2.89D-07  2.69D-07  2.51D-07
  2.44D-07  2.38D-07  2.26D-07  2.07D-07  2.02D-07
  1.91D-07  1.88D-07  1.79D-07  1.65D-07  1.61D-07
  1.55D-07  1.51D-07  1.45D-07  1.42D-07  1.36D-07
  1.33D-07  1.23D-07  1.22D-07  1.18D-07  1.15D-07
  1.12D-07  1.08D-07  1.06D-07  1.03D-07  9.94D-08
  9.42D-08  9.35D-08  8.83D-08  8.78D-08  8.60D-08
  8.20D-08  8.09D-08  7.87D-08  7.73D-08  7.64D-08
  7.26D-08  7.02D-08  6.98D-08  6.76D-08  6.60D-08
  6.55D-08  6.29D-08  6.09D-08  5.82D-08  5.59D-08
  5.51D-08  5.24D-08  5.15D-08  4.96D-08  4.82D-08
  4.70D-08  4.61D-08  4.48D-08  4.39D-08  4.26D-08
  4.06D-08  3.95D-08  3.76D-08  3.75D-08  3.63D-08
  3.25D-08  3.20D-08  3.02D-08  2.95D-08  2.74D-08
  2.41D-08  2.37D-08  2.08D-08  2.06D-08  1.94D-08
  1.88D-08  1.86D-08  1.72D-08  1.55D-08  1.48D-08
  1.38D-08  1.26D-08  1.22D-08  1.12D-08  1.05D-08
  9.70D-09  9.06D-09  8.79D-09  8.36D-09  8.25D-09
  7.74D-09  7.18D-09  6.81D-09  6.60D-09  6.55D-09
  5.90D-09  5.63D-09  4.98D-09  4.54D-09  4.03D-09
  3.26D-09  3.02D-09  2.89D-09  2.84D-09  2.71D-09
  2.35D-09  2.28D-09  2.21D-09  1.81D-09  1.69D-09
  1.57D-09  1.40D-09  1.27D-09  1.20D-09  1.08D-09
  7.45D-10  6.95D-10  5.97D-10  4.81D-10  3.88D-10
  3.64D-10  3.33D-10  1.99D-10  1.04D-10  7.87D-11
  7.48D-11  6.79D-11

 Max MO coeff. of last deleted MO & limit:  2.65D+02  1.00D+03

WARNING: Orbitals have been deleted because of numerical
   linear dependence although not requested in input.

 *** Output from Huckel module :

     Using EWMO model:          T
     Using EHT  model:          F
     Number of Huckel orbitals each symmetry:  154

 EWMO - Energy Weighted Maximum Overlap - is a Huckel type method,
        which normally is better than Extended Huckel Theory.
 Reference: Linderberg and Ohrn, Propagators in Quantum Chemistry (Wiley, 1973)

 Huckel EWMO eigenvalues for symmetry :  1
          -20.684752     -20.683496     -15.677078     -15.674963     -11.359374
          -11.359347     -11.359080     -11.358962     -11.358805     -11.358177
          -11.357067     -11.355666     -11.354101     -11.352519     -11.351100
          -11.348548     -11.347673     -11.346826     -11.346154     -11.345689
          -11.345479     -11.345449     -11.345343     -11.345315     -11.345201
          -11.345199      -1.964023      -1.792553      -1.788416      -1.777016
           -1.753857      -1.715146      -1.659142      -1.586856      -1.502143
           -1.445579      -1.402688      -1.305298      -1.210238      -1.204574
           -1.181381      -1.138478      -1.110079      -1.082419      -1.029091
           -1.004500      -0.962900      -0.921724      -0.897947      -0.852013
           -0.851456      -0.837210      -0.815275      -0.781973      -0.760999
           -0.749335      -0.739750      -0.729381      -0.693878      -0.690068
           -0.669188      -0.654194      -0.645832      -0.629887      -0.604027
           -0.599317      -0.596036      -0.585320      -0.556702      -0.554676
           -0.551379      -0.536644      -0.521781      -0.512788      -0.505246
           -0.501020      -0.494401      -0.493830      -0.489009      -0.487602
           -0.480786      -0.480021      -0.475253      -0.474908      -0.469443
           -0.461643      -0.435957      -0.421846      -0.404684      -0.386742
           -0.379984      -0.364149      -0.356816      -0.335710      -0.302570
           -0.279750      -0.259927      -0.243265      -0.229601      -0.229166
           -0.218679      -0.210184      -0.203785      -0.200939      -0.199174
           -0.196080      -0.194301      -0.190582      -0.166681      -0.142726
           -0.138983      -0.134902      -0.132334      -0.131510      -0.131082
           -0.130349      -0.129767      -0.129600      -0.129276      -0.129072
           -0.128577      -0.127914      -0.127154      -0.126973      -0.126563
           -0.126448      -0.125539      -0.124985      -0.124687      -0.124034
           -0.123697      -0.123194      -0.112462      -0.111162      -0.108141
           -0.106084      -0.102673      -0.101291      -0.097465      -0.096447
           -0.093387      -0.092388      -0.090411      -0.089125      -0.088105
           -0.086854      -0.086313      -0.085269      -0.085053      -0.083702
           -0.082341      -0.081033      -0.079936      -0.079338

 **********************************************************************
 *SIRIUS* a direct, restricted step, second order MCSCF program       *
 **********************************************************************

 
     Date and time (Linux)  : Sat May 31 01:46:30 2025
     Host name              : xm052                                   

 Title lines from ".mol" input file:
     blah                                                                    
     blah                                                                    

 Print level on unit LUPRI =   2 is   0
 Print level on unit LUW4  =   2 is   5

@    Restricted, closed shell Hartree-Fock calculation.

@    Time-dependent Hartree-Fock calculation (random phase approximation).
 Fock matrices are calculated directly and in parallel without use of integrals on disk.

 Initial molecular orbitals are obtained according to
 ".MOSTART EWMO  " input option

     Wave function specification
     ============================
@    Wave function type        --- HF ---
@    Number of closed shell electrons         186
@    Number of electrons in active shells       0
@    Total charge of the molecule               0

@    Spin multiplicity and 2 M_S                1         0
@    Total number of symmetries                 1 (point group: C1 )
@    Reference state symmetry                   1 (irrep name : A  )

     Orbital specifications
     ======================
@    Abelian symmetry species          All |    1
@                                          |  A  
                                       --- |  ---
@    Occupied SCF orbitals              93 |   93
@    Secondary orbitals               2120 | 2120
@    Total number of orbitals         2213 | 2213
@    Number of basis functions        2380 | 2380

     Optimization information
     ========================
@    Number of configurations                 1
@    Number of orbital rotations         197160
     ------------------------------------------
@    Total number of variables           197161

     Maximum number of Fock   iterations      0
     Maximum number of DIIS   iterations     60
     Maximum number of QC-SCF iterations     60
     Threshold for SCF convergence     1.00D-05

    INFORMATION: Switched to "new" integral transformation (from 1988 ;-) )
    because more than 255 basis functions.


 ***********************************************
 ***** DIIS acceleration of SCF iterations *****
 ***********************************************

 C1-DIIS algorithm; max error vectors =    8

 Iter      Total energy        Error norm    Delta(E)  DIIS dim.
 -----------------------------------------------------------------------------
   1  Screening settings (-IFTHRS, JTDIIS, DIFDEN, times)  -10    1    T  1.64D+02  1.65D+02
@  1    -1101.61024240        8.03664D+00   -1.10D+03    1
      Virial theorem: -V/T =      2.011621
@    MULPOP   C_a     0.29; C_b     0.31; C_c     0.28; C_d     0.31; C_e     0.26; C_f     0.36; C_g     0.27; C_h     0.29; C_i     0.16; C_j     0.25; 
@             C_k     0.12; C_l     0.29; C_m     0.16; C_n     0.46; C_o     0.24; C_p     0.31; C_q     0.20; C_r     0.26; C_s     0.25; C_t     0.31; 
@             C_u     0.09; C_v     0.41; N_a    -0.89; N_b    -0.01; O_a    -0.77; O_b    -0.75; H_a    -0.22; H_b    -0.27; H_c    -0.26; H_d    -0.27; 
@    MULPOP    dipole moment & components:     33.4764;       22.6603     24.6410      0.0000
   1  Level shift: doubly occupied orbital energies shifted by -2.00D-01
 -----------------------------------------------------------------------------
   2  Screening settings (-IFTHRS, JTDIIS, DIFDEN, times)  -10    2    T  1.61D+02  1.62D+02
@  2    -1105.23173852        3.05659D+00   -3.62D+00    2
      Virial theorem: -V/T =      2.000627
@    MULPOP   C_a     0.15; C_b     0.14; C_c     0.18; C_d     0.05; C_e     0.16; C_f     0.27; C_g     0.14; C_h     0.10; C_i    -0.03; C_j     0.10; 
@             C_k    -0.03; C_l     0.16; C_m    -0.02; C_n    -0.19; C_o     0.11; C_p     0.27; C_q    -0.14; C_r     0.02; C_s     0.15; C_t     0.11; 
@             C_u    -0.63; C_v     0.34; N_a    -0.69; N_b    -0.00; O_a    -0.69; O_b    -0.75; H_a    -0.04; H_b    -0.11; H_c    -0.18; H_d    -0.15; 
@    MULPOP    dipole moment & components:     15.6096;       10.1017     11.9003      0.0000
   2  Level shift: doubly occupied orbital energies shifted by -1.00D-01
 -----------------------------------------------------------------------------
   3  Screening settings (-IFTHRS, JTDIIS, DIFDEN, times)  -10    3    T  1.58D+02  1.58D+02
@  3    -1105.70782852        1.06102D+00   -4.76D-01    3
      Virial theorem: -V/T =      2.001802
@    MULPOP   C_a     0.12; C_b     0.10; C_c     0.13; C_d     0.05; C_e     0.12; C_f     0.22; C_g     0.08; C_h     0.11; C_i    -0.10; C_j     0.05; 
@             C_k    -0.09; C_l     0.18; C_m    -0.18; C_n     0.01; C_o     0.11; C_p     0.22; C_q    -0.11; C_r    -0.02; C_s     0.12; C_t     0.09; 
@             C_u    -0.27; C_v     0.26; N_a    -0.78; N_b     0.66; O_a    -1.21; O_b    -1.09; H_a    -0.01; H_b    -0.08; H_c    -0.13; H_d    -0.10; 
@    MULPOP    dipole moment & components:     12.8968;        8.1623      9.9852      0.0000
   3  Level shift: doubly occupied orbital energies shifted by -5.00D-02
 -----------------------------------------------------------------------------
   4  Screening settings (-IFTHRS, JTDIIS, DIFDEN, times)  -10    4    T  1.55D+02  1.56D+02
@  4    -1105.77806626        3.09187D-01   -7.02D-02    4
      Virial theorem: -V/T =      2.003450
@    MULPOP   C_a     0.13; C_b     0.12; C_c     0.14; C_d     0.08; C_e     0.13; C_f     0.23; C_g     0.07; C_h     0.15; C_i    -0.11; C_j     0.06; 
@             C_k    -0.10; C_l     0.20; C_m    -0.22; C_n     0.04; C_o     0.08; C_p     0.24; C_q    -0.10; C_r    -0.01; C_s     0.13; C_t     0.10; 
@             C_u    -0.34; C_v     0.23; N_a    -0.81; N_b     0.58; O_a    -1.17; O_b    -1.05; H_a    -0.02; H_b    -0.08; H_c    -0.13; H_d    -0.10; 
@    MULPOP    dipole moment & components:     11.4331;        7.2710      8.8232      0.0000
   4  Level shift: doubly occupied orbital energies shifted by -2.50D-02
 -----------------------------------------------------------------------------
   5  Screening settings (-IFTHRS, JTDIIS, DIFDEN, times)  -14    5    F  1.75D+02  1.76D+02
@  5    -1105.79238498        1.30237D-01   -1.43D-02    5
      Virial theorem: -V/T =      2.002749
@    MULPOP   C_a     0.15; C_b     0.13; C_c     0.16; C_d     0.10; C_e     0.14; C_f     0.25; C_g     0.06; C_h     0.16; C_i    -0.13; C_j     0.06; 
@             C_k    -0.12; C_l     0.21; C_m    -0.23; C_n    -0.01; C_o     0.07; C_p     0.22; C_q    -0.10; C_r    -0.03; C_s     0.14; C_t     0.10; 
@             C_u    -0.35; C_v     0.20; N_a    -0.82; N_b     0.67; O_a    -1.21; O_b    -1.07; H_a    -0.02; H_b    -0.08; H_c    -0.13; H_d    -0.10; 
@    MULPOP    dipole moment & components:     10.5855;        6.7171      8.1813      0.0000
   5  Level shift: doubly occupied orbital energies shifted by -1.25D-02
 -----------------------------------------------------------------------------
   6  Screening settings (-IFTHRS, JTDIIS, DIFDEN, times)  -14    6    T  1.72D+02  1.73D+02
@  6    -1105.79664879        6.84179D-02   -4.26D-03    6
      Virial theorem: -V/T =      2.002624
@    MULPOP   C_a     0.13; C_b     0.12; C_c     0.15; C_d     0.09; C_e     0.13; C_f     0.24; C_g     0.06; C_h     0.15; C_i    -0.13; C_j     0.06; 
@             C_k    -0.12; C_l     0.21; C_m    -0.23; C_n     0.02; C_o     0.07; C_p     0.22; C_q    -0.11; C_r    -0.03; C_s     0.12; C_t     0.09; 
@             C_u    -0.34; C_v     0.22; N_a    -0.84; N_b     0.65; O_a    -1.20; O_b    -1.06; H_a    -0.01; H_b    -0.07; H_c    -0.13; H_d    -0.09; 
@    MULPOP    dipole moment & components:     10.1072;        6.4078      7.8163      0.0000
   6  Level shift: doubly occupied orbital energies shifted by -1.25D-02
 -----------------------------------------------------------------------------
   7  Screening settings (-IFTHRS, JTDIIS, DIFDEN, times)  -14    7    T  1.71D+02  1.72D+02
@  7    -1105.79809046        3.30284D-02   -1.44D-03    7
      Virial theorem: -V/T =      2.002657
@    MULPOP   C_a     0.13; C_b     0.12; C_c     0.15; C_d     0.08; C_e     0.13; C_f     0.23; C_g     0.06; C_h     0.14; C_i    -0.13; C_j     0.06; 
@             C_k    -0.12; C_l     0.21; C_m    -0.23; C_n     0.03; C_o     0.07; C_p     0.22; C_q    -0.11; C_r    -0.03; C_s     0.11; C_t     0.09; 
@             C_u    -0.33; C_v     0.23; N_a    -0.84; N_b     0.65; O_a    -1.20; O_b    -1.06; H_a    -0.01; H_b    -0.07; H_c    -0.13; H_d    -0.09; 
@    MULPOP    dipole moment & components:      9.7918;        6.2192      7.5631      0.0000
 -----------------------------------------------------------------------------
   8  Screening settings (-IFTHRS, JTDIIS, DIFDEN, times)  -14    8    T  1.70D+02  1.72D+02
@  8    -1105.79845932        1.46732D-02   -3.69D-04    8
      Virial theorem: -V/T =      2.002650
@    MULPOP   C_a     0.13; C_b     0.12; C_c     0.14; C_d     0.08; C_e     0.12; C_f     0.23; C_g     0.06; C_h     0.14; C_i    -0.13; C_j     0.06; 
@             C_k    -0.12; C_l     0.21; C_m    -0.23; C_n     0.03; C_o     0.08; C_p     0.22; C_q    -0.10; C_r    -0.03; C_s     0.11; C_t     0.09; 
@             C_u    -0.33; C_v     0.23; N_a    -0.84; N_b     0.66; O_a    -1.20; O_b    -1.06; H_a    -0.01; H_b    -0.07; H_c    -0.13; H_d    -0.09; 
@    MULPOP    dipole moment & components:      9.5463;        6.0441      7.3892      0.0000
 -----------------------------------------------------------------------------
   9  Screening settings (-IFTHRS, JTDIIS, DIFDEN, times)  -14    9    T  1.69D+02  1.70D+02
@  9    -1105.79851215        5.87176D-03   -5.28D-05    8
      Virial theorem: -V/T =      2.002642
@    MULPOP   C_a     0.12; C_b     0.12; C_c     0.14; C_d     0.08; C_e     0.12; C_f     0.23; C_g     0.06; C_h     0.14; C_i    -0.13; C_j     0.06; 
@             C_k    -0.12; C_l     0.21; C_m    -0.23; C_n     0.03; C_o     0.08; C_p     0.22; C_q    -0.10; C_r    -0.03; C_s     0.12; C_t     0.09; 
@             C_u    -0.33; C_v     0.23; N_a    -0.84; N_b     0.66; O_a    -1.20; O_b    -1.06; H_a    -0.01; H_b    -0.07; H_c    -0.12; H_d    -0.09; 
@    MULPOP    dipole moment & components:      9.4257;        5.9558      7.3056      0.0000
 -----------------------------------------------------------------------------
  10  Screening settings (-IFTHRS, JTDIIS, DIFDEN, times)  -14   10    T  1.67D+02  1.68D+02
@ 10    -1105.79852653        3.48306D-03   -1.44D-05    8
      Virial theorem: -V/T =      2.002642
@    MULPOP   C_a     0.12; C_b     0.12; C_c     0.14; C_d     0.08; C_e     0.12; C_f     0.23; C_g     0.06; C_h     0.14; C_i    -0.13; C_j     0.06; 
@             C_k    -0.12; C_l     0.21; C_m    -0.23; C_n     0.03; C_o     0.08; C_p     0.22; C_q    -0.10; C_r    -0.03; C_s     0.11; C_t     0.09; 
@             C_u    -0.33; C_v     0.23; N_a    -0.84; N_b     0.66; O_a    -1.20; O_b    -1.06; H_a    -0.01; H_b    -0.07; H_c    -0.12; H_d    -0.09; 
@    MULPOP    dipole moment & components:      9.3317;        5.8773      7.2483      0.0000
 -----------------------------------------------------------------------------
  11  Screening settings (-IFTHRS, JTDIIS, DIFDEN, times)  -14   11    T  1.66D+02  1.66D+02
@ 11    -1105.79853272        2.15347D-03   -6.19D-06    8
      Virial theorem: -V/T =      2.002643
@    MULPOP   C_a     0.12; C_b     0.12; C_c     0.14; C_d     0.08; C_e     0.12; C_f     0.23; C_g     0.06; C_h     0.14; C_i    -0.13; C_j     0.06; 
@             C_k    -0.12; C_l     0.21; C_m    -0.23; C_n     0.03; C_o     0.08; C_p     0.22; C_q    -0.10; C_r    -0.03; C_s     0.11; C_t     0.09; 
@             C_u    -0.33; C_v     0.23; N_a    -0.84; N_b     0.66; O_a    -1.20; O_b    -1.06; H_a    -0.01; H_b    -0.07; H_c    -0.12; H_d    -0.09; 
@    MULPOP    dipole moment & components:      9.2645;        5.8192      7.2089      0.0000
 -----------------------------------------------------------------------------
  12  Screening settings (-IFTHRS, JTDIIS, DIFDEN, times)  -14   12    T  1.65D+02  1.66D+02
@ 12    -1105.79853533        7.91260D-04   -2.60D-06    8
      Virial theorem: -V/T =      2.002642
@    MULPOP   C_a     0.12; C_b     0.12; C_c     0.14; C_d     0.08; C_e     0.12; C_f     0.23; C_g     0.06; C_h     0.14; C_i    -0.13; C_j     0.06; 
@             C_k    -0.12; C_l     0.21; C_m    -0.23; C_n     0.02; C_o     0.08; C_p     0.22; C_q    -0.10; C_r    -0.03; C_s     0.11; C_t     0.09; 
@             C_u    -0.33; C_v     0.23; N_a    -0.84; N_b     0.66; O_a    -1.20; O_b    -1.06; H_a    -0.01; H_b    -0.07; H_c    -0.12; H_d    -0.09; 
@    MULPOP    dipole moment & components:      9.2064;        5.7686      7.1750      0.0000
 -----------------------------------------------------------------------------
  13  Screening settings (-IFTHRS, JTDIIS, DIFDEN, times)  -14   13    T  1.64D+02  1.64D+02
@ 13    -1105.79853567        3.34612D-04   -3.40D-07    8
      Virial theorem: -V/T =      2.002642
@    MULPOP   C_a     0.12; C_b     0.12; C_c     0.14; C_d     0.08; C_e     0.12; C_f     0.23; C_g     0.06; C_h     0.14; C_i    -0.13; C_j     0.06; 
@             C_k    -0.12; C_l     0.21; C_m    -0.23; C_n     0.02; C_o     0.08; C_p     0.22; C_q    -0.10; C_r    -0.03; C_s     0.11; C_t     0.09; 
@             C_u    -0.33; C_v     0.23; N_a    -0.84; N_b     0.66; O_a    -1.20; O_b    -1.06; H_a    -0.01; H_b    -0.07; H_c    -0.12; H_d    -0.09; 
@    MULPOP    dipole moment & components:      9.1840;        5.7491      7.1620      0.0000
 -----------------------------------------------------------------------------
  14  Screening settings (-IFTHRS, JTDIIS, DIFDEN, times)  -14   14    T  1.61D+02  1.61D+02
@ 14    -1105.79853570        1.65538D-04   -3.04D-08    8
      Virial theorem: -V/T =      2.002642
@    MULPOP   C_a     0.12; C_b     0.12; C_c     0.14; C_d     0.08; C_e     0.12; C_f     0.23; C_g     0.06; C_h     0.14; C_i    -0.13; C_j     0.06; 
@             C_k    -0.12; C_l     0.21; C_m    -0.23; C_n     0.02; C_o     0.08; C_p     0.22; C_q    -0.10; C_r    -0.03; C_s     0.11; C_t     0.09; 
@             C_u    -0.33; C_v     0.23; N_a    -0.84; N_b     0.66; O_a    -1.20; O_b    -1.06; H_a    -0.01; H_b    -0.07; H_c    -0.12; H_d    -0.09; 
@    MULPOP    dipole moment & components:      9.1796;        5.7452      7.1595      0.0000
 -----------------------------------------------------------------------------
  15  Screening settings (-IFTHRS, JTDIIS, DIFDEN, times)  -14   15    T  1.59D+02  1.59D+02
@ 15    -1105.79853570        7.27505D-05   -6.59D-09    8
      Virial theorem: -V/T =      2.002642
@    MULPOP   C_a     0.12; C_b     0.12; C_c     0.14; C_d     0.08; C_e     0.12; C_f     0.23; C_g     0.06; C_h     0.14; C_i    -0.13; C_j     0.06; 
@             C_k    -0.12; C_l     0.21; C_m    -0.23; C_n     0.02; C_o     0.08; C_p     0.22; C_q    -0.10; C_r    -0.03; C_s     0.11; C_t     0.09; 
@             C_u    -0.33; C_v     0.23; N_a    -0.84; N_b     0.66; O_a    -1.20; O_b    -1.06; H_a    -0.01; H_b    -0.07; H_c    -0.12; H_d    -0.09; 
@    MULPOP    dipole moment & components:      9.1777;        5.7434      7.1585      0.0000
 -----------------------------------------------------------------------------
  16  Screening settings (-IFTHRS, JTDIIS, DIFDEN, times)  -14   16    T  1.58D+02  1.58D+02
@ 16    -1105.79853570        3.27209D-05   -7.79D-10    8
      Virial theorem: -V/T =      2.002642
@    MULPOP   C_a     0.12; C_b     0.12; C_c     0.14; C_d     0.08; C_e     0.12; C_f     0.23; C_g     0.06; C_h     0.14; C_i    -0.13; C_j     0.06; 
@             C_k    -0.12; C_l     0.21; C_m    -0.23; C_n     0.02; C_o     0.08; C_p     0.22; C_q    -0.10; C_r    -0.03; C_s     0.11; C_t     0.09; 
@             C_u    -0.33; C_v     0.23; N_a    -0.84; N_b     0.66; O_a    -1.20; O_b    -1.06; H_a    -0.01; H_b    -0.07; H_c    -0.12; H_d    -0.09; 
@    MULPOP    dipole moment & components:      9.1773;        5.7430      7.1582      0.0000
 -----------------------------------------------------------------------------
  17  Screening settings (-IFTHRS, JTDIIS, DIFDEN, times)  -14   17    T  1.56D+02  1.56D+02
@ 17    -1105.79853570        2.14352D-05   -1.46D-10    8
      Virial theorem: -V/T =      2.002642
@    MULPOP   C_a     0.12; C_b     0.12; C_c     0.14; C_d     0.08; C_e     0.12; C_f     0.23; C_g     0.06; C_h     0.14; C_i    -0.13; C_j     0.06; 
@             C_k    -0.12; C_l     0.21; C_m    -0.23; C_n     0.02; C_o     0.08; C_p     0.22; C_q    -0.10; C_r    -0.03; C_s     0.11; C_t     0.09; 
@             C_u    -0.33; C_v     0.23; N_a    -0.84; N_b     0.66; O_a    -1.20; O_b    -1.06; H_a    -0.01; H_b    -0.07; H_c    -0.12; H_d    -0.09; 
@    MULPOP    dipole moment & components:      9.1771;        5.7429      7.1581      0.0000
 -----------------------------------------------------------------------------
  18  Screening settings (-IFTHRS, JTDIIS, DIFDEN, times)  -14   18    T  1.56D+02  1.57D+02
@ 18    -1105.79853570        9.35194D-06    7.78D-11    8

@ *** DIIS converged in  18 iterations !
@     Converged SCF energy, gradient:  -1105.798535703351    9.35D-06
    - total time used in SIRFCK :              0.00 seconds


 *** SCF orbital energy analysis ***

 Only the 20 lowest virtual orbital energies printed in each symmetry.

 Number of electrons :  186
 Orbital occupations :   93

 Sym       Hartree-Fock orbital energies

1 A     -20.58713492   -20.58425267   -15.83754147   -15.59249899   -11.30268178
        -11.28933106   -11.28777789   -11.27820352   -11.27013642   -11.26421397
        -11.25956721   -11.25934290   -11.25575266   -11.25486447   -11.25278242
        -11.25252423   -11.25195404   -11.24985260   -11.24897917   -11.24835145
        -11.24591861   -11.24262419   -11.23889554   -11.23449673   -11.22958295
        -11.22705832    -1.57745980    -1.37535939    -1.23738987    -1.14311313
         -1.12808714    -1.11822960    -1.10837395    -1.09570041    -1.07964019
         -1.06044863    -1.03836724    -1.01360120    -0.98637020    -0.95719700
         -0.93573131    -0.88786094    -0.85641531    -0.82645819    -0.80194590
         -0.78676011    -0.78234606    -0.77361747    -0.76742314    -0.76376352
         -0.75304137    -0.75073608    -0.73445649    -0.71742600    -0.71114682
         -0.69535681    -0.68101926    -0.67178512    -0.66814512    -0.65203648
         -0.64218439    -0.63154379    -0.61731647    -0.60494020    -0.59980174
         -0.58040066    -0.57578970    -0.56453709    -0.55141327    -0.55055686
         -0.53961023    -0.53164665    -0.53032196    -0.52507822    -0.52283227
         -0.51664488    -0.51086038    -0.50532245    -0.49899997    -0.49810012
         -0.48608669    -0.48012211    -0.47770922    -0.47333035    -0.45637497
         -0.43865895    -0.43455531    -0.40823691    -0.37743921    -0.34255173
         -0.30436606    -0.26474041    -0.22725862     0.00030765     0.00454791
          0.00516914     0.00630270     0.00727898     0.00829358     0.01121953
          0.01251352     0.01287865     0.01523079     0.01698498     0.01830753
          0.01905374     0.01940145     0.02117101     0.02243592     0.02254841
          0.02342212     0.02420287     0.02535866

    E(LUMO) :     0.00030765 au (symmetry 1)
  - E(HOMO) :    -0.22725862 au (symmetry 1)
  ------------------------------------------
    gap     :     0.22756626 au

 --- Writing SIRIFC interface file

 CPU and wall time for SCF :    4660.392    4683.030


                       .-----------------------------------.
                       | --- Final results from SIRIUS --- |
                       `-----------------------------------'


@    Spin multiplicity:           1
@    Spatial symmetry:            1 ( irrep  A   in C1  )
@    Total charge of molecule:    0

@    Final HF energy:           -1105.798535703351                 
@    Nuclear repulsion:          1581.530184833914
@    Electronic energy:         -2687.328720537264

@    Final gradient norm:           0.000009351939

 
     Date and time (Linux)  : Sat May 31 03:05:01 2025
     Host name              : xm052                                   

File label for MO orbitals:  31May25   FOCKDIIS

 (Only coefficients > 0.0100 are printed.)

 Molecular orbitals for symmetry species 1  (A  )
 ------------------------------------------------

    Orbital        84       85       86       87       88       89       90
   9 C_a :2pz    0.2211  -0.0661  -0.0278  -0.1735  -0.2075  -0.0327   0.2345
  15 C_a :2pz   -0.0095   0.0119   0.0005   0.0056   0.0231  -0.0121  -0.0085
  18 C_a :2pz    0.0850  -0.0070  -0.0297  -0.0407  -0.0948  -0.0510   0.1878
  21 C_a :2pz   -0.0223   0.0088  -0.0677  -0.0056  -0.0197   0.0151   0.0549
  30 C_a :3d1+   0.0076   0.0018  -0.0012  -0.0099  -0.0039  -0.0095   0.0105
  33 C_a :3d1-   0.0246  -0.0038   0.0082   0.0022  -0.0219  -0.0047   0.0181
  35 C_a :3d1+   0.0242  -0.0031   0.0087   0.0047   0.0033  -0.0091  -0.0146
  38 C_a :3d1-   0.0230   0.0044  -0.0039   0.0422  -0.0540   0.0319  -0.0644
  40 C_a :3d1+   0.0606  -0.0044  -0.0131   0.0446  -0.0638   0.0084  -0.0412
  57 C_a :4f2-   0.0184  -0.0062  -0.0047  -0.0144  -0.0277  -0.0010   0.0344
  59 C_a :4f0   -0.0115   0.0048   0.0011   0.0095   0.0138   0.0009  -0.0137
  71 C_b :2pz    0.1916   0.0373  -0.0291  -0.2245  -0.1013  -0.1707   0.1928
  77 C_b :2pz   -0.0053  -0.0021   0.0030   0.0223  -0.0085   0.0225  -0.0095
  80 C_b :2pz    0.0361  -0.0033  -0.0125  -0.0771  -0.0310  -0.0966   0.1585
  83 C_b :2pz    0.0082   0.0073   0.0375  -0.0104  -0.0077  -0.0166   0.0538
  92 C_b :3d1+  -0.0085   0.0034   0.0011   0.0069   0.0107   0.0002  -0.0133
  95 C_b :3d1-   0.0278  -0.0027   0.0077   0.0066  -0.0057   0.0120  -0.0314
  97 C_b :3d1+   0.0304  -0.0010   0.0032  -0.0050  -0.0092  -0.0177  -0.0016
 100 C_b :3d1-   0.0644   0.0039   0.0217   0.0161  -0.0534   0.0008   0.0013
 102 C_b :3d1+   0.0515  -0.0016   0.0165   0.0416  -0.0562   0.0067  -0.0053
 119 C_b :4f2-   0.0170   0.0031  -0.0051  -0.0225  -0.0091  -0.0269   0.0301
 121 C_b :4f0   -0.0097  -0.0013   0.0028   0.0145   0.0040   0.0115  -0.0121
 123 C_b :4f2+  -0.0065  -0.0105  -0.0042   0.0005  -0.0014  -0.0007   0.0046
 133 C_c :2pz    0.1113   0.1746  -0.0170  -0.1814   0.1279  -0.2088  -0.1011
 139 C_c :2pz    0.0037  -0.0032   0.0065   0.0257  -0.0020   0.0179  -0.0167
 142 C_c :2pz    0.0049   0.0576  -0.0017  -0.0720   0.0625  -0.1033  -0.0591
 145 C_c :2pz    0.0183  -0.0120  -0.0120   0.0203   0.0159  -0.0477  -0.0116
 154 C_c :3d1+   0.0019   0.0092   0.0001  -0.0027   0.0105  -0.0034  -0.0124
 157 C_c :3d1-   0.0502   0.0096   0.0060  -0.0120  -0.0101  -0.0138  -0.0284
 159 C_c :3d1+   0.0553   0.0108   0.0124   0.0001  -0.0169   0.0165  -0.0281
 162 C_c :3d1-   0.0732  -0.0001   0.0235   0.0056  -0.0536  -0.0532   0.0247
 164 C_c :3d1+   0.0748   0.0242   0.0110  -0.0223  -0.0608  -0.0431   0.0111
 181 C_c :4f2-   0.0078   0.0128  -0.0028  -0.0200   0.0144  -0.0309  -0.0070
 183 C_c :4f0   -0.0037  -0.0088   0.0018   0.0132  -0.0076   0.0126   0.0028
 185 C_c :4f2+   0.0094   0.0124   0.0021   0.0024  -0.0005  -0.0002  -0.0069
 195 C_d :2pz    0.0379   0.2236  -0.0022  -0.0795   0.2160  -0.0860  -0.2127
 201 C_d :2pz    0.0017  -0.0182  -0.0069   0.0029  -0.0192  -0.0105   0.0324
 204 C_d :2pz    0.0212   0.0546  -0.0034  -0.0274   0.0756  -0.0536  -0.1978
 207 C_d :2pz   -0.0040   0.0004   0.0318  -0.0049   0.0085  -0.0052  -0.0896
 216 C_d :3d1+  -0.0040  -0.0065   0.0010   0.0087  -0.0049   0.0117   0.0043
 219 C_d :3d1-   0.0585   0.0113   0.0048  -0.0009  -0.0231   0.0072   0.0108
 221 C_d :3d1+   0.0697   0.0190   0.0101  -0.0011  -0.0056   0.0027  -0.0387
 224 C_d :3d1-   0.0673   0.0405  -0.0108  -0.0174  -0.0456  -0.0448  -0.0347
 226 C_d :3d1+   0.0688   0.0192  -0.0029  -0.0116  -0.0555  -0.0502  -0.0146
 243 C_d :4f2-   0.0105   0.0218   0.0024  -0.0058   0.0238  -0.0095  -0.0413
 245 C_d :4f0   -0.0032  -0.0140  -0.0012   0.0049  -0.0124   0.0033   0.0171
 247 C_d :4f2+  -0.0112  -0.0082  -0.0046  -0.0077   0.0041  -0.0026   0.0007
 257 C_e :2pz   -0.0746   0.2238   0.0203   0.1082   0.1909   0.1746  -0.1236
 263 C_e :2pz   -0.0028  -0.0153  -0.0040  -0.0018  -0.0205   0.0012   0.0280
 266 C_e :2pz    0.0092   0.0737   0.0288   0.0747   0.0643   0.0628  -0.1279
 269 C_e :2pz   -0.0017   0.0019   0.0435  -0.0126   0.0047   0.0324  -0.0222
 278 C_e :3d1+  -0.0049   0.0067   0.0012   0.0089   0.0023   0.0118   0.0036
 281 C_e :3d1-   0.0699   0.0341   0.0017   0.0018   0.0017   0.0101  -0.0056
 283 C_e :3d1+   0.0574   0.0320   0.0006  -0.0032  -0.0163  -0.0028   0.0290
 286 C_e :3d1-   0.0681   0.0402   0.0129  -0.0231  -0.0101  -0.0391  -0.0799
 288 C_e :3d1+   0.0859   0.0698   0.0265  -0.0042   0.0006  -0.0597  -0.0953
 305 C_e :4f2-   0.0036   0.0197   0.0011   0.0118   0.0228   0.0198  -0.0272
 307 C_e :4f0    0.0019  -0.0130  -0.0017  -0.0064  -0.0122  -0.0088   0.0109
 309 C_e :4f2+   0.0121   0.0098   0.0019   0.0092  -0.0057   0.0019  -0.0019
 319 C_f :2pz   -0.1426   0.1687   0.0287   0.1973   0.0721   0.2321   0.0456
 325 C_f :2pz    0.0067  -0.0081   0.0022  -0.0206   0.0023  -0.0201  -0.0331
 328 C_f :2pz   -0.0426   0.0248  -0.0256   0.0394   0.0688   0.1469   0.1024
 331 C_f :2pz   -0.0125  -0.0007  -0.0922   0.0129  -0.0005   0.0239   0.0500
 343 C_f :3d1-   0.0485   0.0362   0.0064  -0.0078  -0.0121  -0.0195  -0.0028
 345 C_f :3d1+   0.0703   0.0435   0.0022   0.0063  -0.0117   0.0125   0.0227
 348 C_f :3d1-   0.0721   0.0735   0.0060   0.0148   0.0009  -0.0335  -0.0755
 350 C_f :3d1+   0.0898   0.0671   0.0073   0.0015  -0.0150  -0.0495  -0.1016
 367 C_f :4f2-   0.0016   0.0173  -0.0002   0.0225   0.0057   0.0319   0.0170
 369 C_f :4f0    0.0053  -0.0101  -0.0004  -0.0127  -0.0040  -0.0145  -0.0082
 371 C_f :4f2+  -0.0117  -0.0047  -0.0019  -0.0034   0.0090   0.0023   0.0009
 381 C_g :2pz   -0.2205   0.0402   0.0282   0.2328  -0.1504   0.1021   0.2406
 387 C_g :2pz    0.0133  -0.0026  -0.0018  -0.0137  -0.0015  -0.0254  -0.0199
 390 C_g :2pz   -0.0618   0.0050   0.0046   0.0725  -0.0754   0.0728   0.1779
 393 C_g :2pz   -0.0098   0.0087  -0.0227  -0.0063  -0.0156   0.0127   0.0476
 402 C_g :3d1+  -0.0088  -0.0023   0.0007   0.0069  -0.0107  -0.0041   0.0085
 405 C_g :3d1-   0.0604   0.0515   0.0089   0.0185  -0.0166   0.0020   0.0101
 407 C_g :3d1+   0.0464   0.0505   0.0106   0.0110  -0.0103  -0.0217  -0.0308
 410 C_g :3d1-   0.0605   0.0699   0.0009   0.0205   0.0093   0.0140  -0.0329
 412 C_g :3d1+   0.0402   0.0844   0.0083   0.0406   0.0001   0.0361  -0.0285
 429 C_g :4f2-  -0.0059   0.0046   0.0014   0.0226  -0.0139   0.0185   0.0400
 431 C_g :4f0    0.0100  -0.0021  -0.0016  -0.0135   0.0077  -0.0088  -0.0160
 433 C_g :4f2+   0.0127   0.0078   0.0025   0.0057  -0.0121  -0.0043  -0.0032
 443 C_h :2pz   -0.2482  -0.0585   0.0183   0.1728  -0.2264  -0.0577   0.1663
 449 C_h :2pz    0.0018   0.0104  -0.0059  -0.0068   0.0201   0.0189   0.0048
 452 C_h :2pz   -0.0327   0.0077   0.0558   0.0708  -0.1008  -0.0553   0.0735
 455 C_h :2pz    0.0276  -0.0059   0.0974  -0.0019   0.0011  -0.0227   0.0222
 464 C_h :3d1+   0.0087  -0.0019  -0.0012  -0.0100   0.0056  -0.0070  -0.0139
 467 C_h :3d1-   0.0338   0.0504   0.0043   0.0178  -0.0015  -0.0064  -0.0320
 469 C_h :3d1+   0.0686   0.0619   0.0086   0.0303  -0.0284  -0.0274  -0.0190
 472 C_h :3d1-   0.0341   0.0781   0.0280   0.0519  -0.0312   0.0105  -0.0053
 474 C_h :3d1+   0.0526   0.0776   0.0220   0.0330   0.0007   0.0187   0.0031
 491 C_h :4f2-   0.0019   0.0004   0.0038   0.0195  -0.0286  -0.0145   0.0179
 493 C_h :4f0    0.0080   0.0030  -0.0023  -0.0106   0.0147   0.0059  -0.0063
 495 C_h :4f2+  -0.0129  -0.0070  -0.0003   0.0016   0.0033   0.0035   0.0060
 505 C_i :2pz   -0.2600  -0.1860  -0.0036   0.0082  -0.1873  -0.2396  -0.1336
 511 C_i :2pz   -0.0040   0.0070  -0.0001  -0.0131   0.0251   0.0194  -0.0006
 514 C_i :2pz   -0.0378  -0.0647  -0.0459   0.0112  -0.0874  -0.1598  -0.0908
 517 C_i :2pz    0.0088  -0.0079  -0.0088   0.0191   0.0063  -0.0464  -0.0632
 526 C_i :3d1+  -0.0086  -0.0087  -0.0007  -0.0048  -0.0022  -0.0097  -0.0129
 529 C_i :3d1-   0.0438   0.0537   0.0041   0.0354  -0.0332  -0.0283  -0.0319
 531 C_i :3d1+   0.0116   0.0457   0.0039   0.0249  -0.0104   0.0054  -0.0169
 534 C_i :3d1-   0.0424   0.0849   0.0302   0.0687  -0.0637  -0.0232  -0.0086
 536 C_i :3d1+   0.0296   0.0732   0.0120   0.0812  -0.0913  -0.0408  -0.0122
 553 C_i :4f2-   0.0032  -0.0075   0.0001   0.0092  -0.0269  -0.0367  -0.0201
 555 C_i :4f0    0.0064   0.0090   0.0005  -0.0028   0.0135   0.0160   0.0083
 557 C_i :4f2+   0.0119   0.0097   0.0005   0.0019  -0.0077  -0.0083  -0.0089
 567 C_j :2pz   -0.2407  -0.2345  -0.0177  -0.1090  -0.0648  -0.2017  -0.2242
 573 C_j :2pz   -0.0009   0.0088   0.0036   0.0128   0.0005   0.0103   0.0310
 576 C_j :2pz   -0.0511  -0.0561  -0.0090  -0.0279  -0.0149  -0.0878  -0.1569
 579 C_j :2pz   -0.0300   0.0102  -0.0564  -0.0087  -0.0123   0.0096  -0.0566
 588 C_j :3d1+   0.0099   0.0071   0.0000  -0.0015   0.0097   0.0119   0.0059
 591 C_j :3d1-  -0.0035   0.0311   0.0072   0.0222  -0.0087   0.0166   0.0206
 593 C_j :3d1+   0.0244   0.0451   0.0050   0.0213  -0.0144  -0.0063  -0.0258
 596 C_j :3d1-  -0.0009   0.0285   0.0009   0.0443  -0.0542  -0.0448  -0.0390
 598 C_j :3d1+   0.0150   0.0617   0.0054   0.0676  -0.0656  -0.0377  -0.0294
 615 C_j :4f2-   0.0001  -0.0097  -0.0031  -0.0077  -0.0086  -0.0254  -0.0392
 617 C_j :4f0    0.0079   0.0113   0.0020   0.0073   0.0034   0.0103   0.0153
 619 C_j :4f2+  -0.0087  -0.0121  -0.0020  -0.0010  -0.0017  -0.0040  -0.0043
 629 C_k :2pz   -0.1917  -0.2493  -0.0312  -0.2335   0.1554   0.0299  -0.1061
 635 C_k :2pz    0.0147   0.0246   0.0039   0.0356  -0.0206  -0.0102   0.0029
 638 C_k :2pz   -0.0744  -0.0920   0.0078  -0.1346   0.1141   0.0623  -0.0485
 641 C_k :2pz   -0.0026  -0.0007   0.0173  -0.0173   0.0086   0.0449   0.0579
 653 C_k :3d1-   0.0134   0.0233   0.0040   0.0116  -0.0059   0.0031   0.0033
 655 C_k :3d1+   0.0025   0.0297   0.0078   0.0352  -0.0296  -0.0108   0.0155
 658 C_k :3d1-   0.0189   0.0349   0.0042   0.0504  -0.0667  -0.0765  -0.0782
 660 C_k :3d1+   0.0012   0.0195   0.0165   0.0239  -0.0634  -0.0832  -0.1014
 677 C_k :4f2-  -0.0031  -0.0182  -0.0041  -0.0265   0.0215   0.0090  -0.0127
 679 C_k :4f0    0.0064   0.0123   0.0017   0.0159  -0.0102  -0.0033   0.0056
 681 C_k :4f2+   0.0087   0.0123   0.0012   0.0045  -0.0032  -0.0028  -0.0054
 691 C_l :2pz   -0.1369  -0.2046  -0.0302  -0.2358   0.2269   0.1685   0.0679
 697 C_l :2pz   -0.0215  -0.0134  -0.0017  -0.0002  -0.0103  -0.0175  -0.0330
 700 C_l :2pz    0.0151  -0.0067  -0.0045  -0.0080   0.0304   0.0375   0.0450
 703 C_l :2pz    0.0182  -0.0102   0.0144   0.0063   0.0163  -0.0018   0.0379
 712 C_l :3d1+   0.0078   0.0107   0.0014   0.0102  -0.0064  -0.0000   0.0076
 715 C_l :3d1-  -0.0068   0.0220   0.0052   0.0380  -0.0462  -0.0410  -0.0290
 717 C_l :3d1+   0.0235   0.0429   0.0060   0.0444  -0.0367  -0.0213  -0.0060
 720 C_l :3d1-  -0.0206   0.0174   0.0130   0.0094  -0.0389  -0.0339  -0.0691
 722 C_l :3d1+  -0.0294   0.0135   0.0141   0.0093  -0.0381  -0.0350  -0.0775
 739 C_l :4f2-   0.0099  -0.0025  -0.0014  -0.0133   0.0204   0.0209   0.0181
 743 C_l :4f2+  -0.0044  -0.0127  -0.0020  -0.0116   0.0085   0.0053   0.0045
 753 C_m :2pz   -0.0450  -0.0908  -0.0170  -0.1396   0.1879   0.2265   0.2502
 759 C_m :2pz   -0.0273  -0.0336  -0.0040  -0.0294   0.0249   0.0245   0.0240
 762 C_m :2pz    0.0210   0.0076  -0.0140  -0.0091   0.0590   0.0932   0.1344
 765 C_m :2pz   -0.0016   0.0045  -0.0070   0.0076  -0.0111  -0.0210  -0.0306
 777 C_m :3d1-   0.0016   0.0148   0.0022   0.0170  -0.0196  -0.0153  -0.0168
 779 C_m :3d1+  -0.0306  -0.0126   0.0002  -0.0040  -0.0095  -0.0156  -0.0270
 782 C_m :3d1-   0.0005   0.0090   0.0099   0.0108  -0.0232  -0.0340  -0.0492
 784 C_m :3d1+   0.0104   0.0216   0.0042   0.0167  -0.0286  -0.0376  -0.0575
 801 C_m :4f2-   0.0170   0.0111   0.0001   0.0051   0.0039   0.0103   0.0182
 815 C_n :2pz    0.0301   0.0197  -0.0001  -0.0059   0.0411   0.0825   0.1261
 821 C_n :2pz    0.0080  -0.0057  -0.0017  -0.0052   0.0091   0.0082   0.0171
 824 C_n :2pz   -0.0078  -0.0809  -0.0214  -0.0537   0.0915   0.0825   0.1529
 834 C_n :3d1-   0.0037   0.0051   0.0008   0.0066  -0.0078  -0.0092  -0.0101
 836 C_n :3d1+   0.0031   0.0058   0.0010   0.0090  -0.0121  -0.0151  -0.0173
 839 C_n :3d1-  -0.0185  -0.0212  -0.0021  -0.0159   0.0100   0.0009  -0.0062
 841 C_n :3d1+  -0.0208  -0.0169  -0.0014  -0.0123   0.0047   0.0001  -0.0072
 844 C_n :3d1-  -0.0088  -0.0039  -0.0024  -0.0091   0.0076   0.0144   0.0085
 846 C_n :3d1+  -0.0024   0.0134   0.0051   0.0070  -0.0138  -0.0068  -0.0163
 877 C_o :2pz   -0.1910   0.1599   0.0021  -0.0927   0.0052  -0.1136   0.2068
 883 C_o :2pz    0.0016  -0.0098   0.0262   0.0109   0.0141  -0.0211   0.0226
 886 C_o :2pz   -0.0981   0.0753   0.0908  -0.0914  -0.0460   0.0281   0.0554
 889 C_o :2pz   -0.0033   0.0138   0.0398  -0.0189  -0.0234   0.0373  -0.0706
 898 C_o :3d1+  -0.0065   0.0034   0.0008   0.0013   0.0067  -0.0108   0.0124
 901 C_o :3d1-  -0.0306   0.0362   0.0136  -0.0312  -0.0206   0.0075   0.0094
 903 C_o :3d1+  -0.0380   0.0317   0.0426  -0.0260  -0.0129   0.0060  -0.0031
 906 C_o :3d1-   0.0423   0.0500   0.0504  -0.0071  -0.0587   0.0118  -0.0663
 908 C_o :3d1+   0.0025   0.0595   0.1159  -0.0392  -0.0618   0.0309  -0.0668
 925 C_o :4f2-  -0.0075   0.0119  -0.0110  -0.0077  -0.0014  -0.0065   0.0192
 939 C_p :2pz   -0.1420   0.0693   0.0149   0.0310   0.1349  -0.2054   0.2195
 945 C_p :2pz    0.0189   0.0022  -0.0353  -0.0015  -0.0254   0.0187  -0.0240
 948 C_p :2pz   -0.0400   0.0080  -0.1083   0.0145   0.0879  -0.1530   0.2141
 951 C_p :2pz   -0.0171   0.0210   0.0656  -0.0317  -0.0146   0.0111   0.0638
 960 C_p :3d1+   0.0073  -0.0070  -0.0000   0.0051   0.0010   0.0049  -0.0114
 963 C_p :3d1-  -0.0246   0.0333   0.0145  -0.0141  -0.0214   0.0129  -0.0266
 965 C_p :3d1+  -0.0275   0.0316   0.0278  -0.0106   0.0016  -0.0206   0.0161
 968 C_p :3d1-  -0.0216   0.0532  -0.0943  -0.0149  -0.0394  -0.0049   0.0067
 970 C_p :3d1+  -0.0067   0.0628  -0.0773  -0.0242  -0.0736   0.0283  -0.0438
 987 C_p :4f2-  -0.0106   0.0035   0.0190   0.0041   0.0214  -0.0315   0.0377
 989 C_p :4f0    0.0091  -0.0031  -0.0080  -0.0019  -0.0106   0.0130  -0.0148
 991 C_p :4f2+   0.0054  -0.0052  -0.0186   0.0023   0.0046  -0.0028   0.0032
1001 C_q :2pz   -0.0288  -0.0962   0.0289   0.1995   0.2262  -0.1404  -0.0286
1007 C_q :2pz    0.0052  -0.0029  -0.0386  -0.0119  -0.0182   0.0311  -0.0297
1010 C_q :2pz    0.0219  -0.0179   0.1172   0.0912   0.0952  -0.1236   0.0048
1013 C_q :2pz    0.0051  -0.0150  -0.1220   0.0355   0.0235  -0.0585   0.1012
1022 C_q :3d1+   0.0019  -0.0073   0.0009   0.0097   0.0064   0.0016  -0.0102
1025 C_q :3d1-  -0.0213   0.0315   0.0111   0.0029  -0.0014  -0.0052  -0.0231
1027 C_q :3d1+  -0.0283   0.0330  -0.0099  -0.0129  -0.0286   0.0320  -0.0427
1030 C_q :3d1-  -0.0207   0.0575   0.0523  -0.0277  -0.0150  -0.0278   0.0136
1032 C_q :3d1+  -0.0073   0.0599   0.0764  -0.0015  -0.0022  -0.0548   0.0227
1049 C_q :4f2-   0.0033  -0.0102   0.0163   0.0261   0.0324  -0.0315   0.0119
1051 C_q :4f0    0.0013   0.0044  -0.0114  -0.0124  -0.0143   0.0124  -0.0042
1063 C_r :2pz    0.0552  -0.1761   0.0253   0.2204   0.1485   0.0127  -0.1684
1069 C_r :2pz   -0.0070   0.0108   0.0035  -0.0204   0.0043  -0.0219   0.0350
1072 C_r :2pz    0.0410  -0.0415   0.0184   0.1090   0.0784  -0.0031  -0.1399
1075 C_r :2pz    0.0094  -0.0104  -0.0025   0.0163   0.0132  -0.0170  -0.0750
1084 C_r :3d1+   0.0012   0.0035  -0.0019  -0.0087  -0.0117   0.0092  -0.0002
1087 C_r :3d1-  -0.0348   0.0276  -0.0046  -0.0206  -0.0211   0.0167  -0.0032
1089 C_r :3d1+  -0.0273   0.0220  -0.0044   0.0002  -0.0100   0.0263  -0.0437
1092 C_r :3d1-   0.0121   0.0519   0.0030   0.0374  -0.0030  -0.0645  -0.0068
1094 C_r :3d1+   0.0076   0.0518   0.0313   0.0162   0.0061  -0.0872   0.0287
1111 C_r :4f2-   0.0091  -0.0161   0.0057   0.0282   0.0168   0.0036  -0.0323
1113 C_r :4f0   -0.0033   0.0090  -0.0034  -0.0146  -0.0064  -0.0031   0.0141
1125 C_s :2pz    0.1646  -0.2245   0.0058   0.1257  -0.0816   0.2283  -0.1709
1131 C_s :2pz    0.0104   0.0162   0.0101  -0.0110  -0.0040  -0.0184   0.0303
1134 C_s :2pz   -0.0003  -0.0676  -0.0831   0.0121  -0.0495   0.1719  -0.1675
1137 C_s :2pz    0.0089   0.0044   0.1344  -0.0221  -0.0012   0.0360  -0.0931
1146 C_s :3d1+   0.0081  -0.0076  -0.0005  -0.0004  -0.0096   0.0101   0.0000
1149 C_s :3d1-  -0.0204   0.0069   0.0050   0.0055  -0.0118   0.0218  -0.0142
1151 C_s :3d1+  -0.0142   0.0127   0.0119  -0.0044  -0.0120  -0.0088   0.0249
1154 C_s :3d1-   0.0007   0.0398   0.0010   0.0499   0.0175  -0.0372  -0.0415
1156 C_s :3d1+  -0.0048   0.0256  -0.0046   0.0462   0.0003  -0.0013  -0.0786
1173 C_s :4f2-   0.0095  -0.0205  -0.0045   0.0144  -0.0076   0.0326  -0.0342
1175 C_s :4f0   -0.0051   0.0132   0.0042  -0.0075   0.0045  -0.0151   0.0143
1187 C_t :2pz    0.2063  -0.1881  -0.0100   0.0054  -0.1909   0.2036  -0.0148
1193 C_t :2pz   -0.0005   0.0117   0.0067   0.0117   0.0257  -0.0077  -0.0186
1196 C_t :2pz    0.0591  -0.0538   0.0572   0.0120  -0.0944   0.1113  -0.0148
1199 C_t :2pz   -0.0045  -0.0056  -0.0522   0.0066  -0.0034   0.0229   0.0251
1206 C_t :3d1-   0.0063  -0.0015  -0.0009  -0.0060  -0.0067  -0.0024   0.0101
1208 C_t :3d1+  -0.0063   0.0094  -0.0005  -0.0066   0.0026  -0.0119   0.0112
1211 C_t :3d1-   0.0060   0.0090   0.0164   0.0093   0.0021  -0.0199   0.0079
1213 C_t :3d1+   0.0020   0.0074   0.0131   0.0058  -0.0240   0.0048   0.0172
1216 C_t :3d1-   0.0297   0.0059   0.0518   0.0426  -0.0164   0.0033  -0.0875
1218 C_t :3d1+   0.0069   0.0299   0.0387   0.0410  -0.0005   0.0098  -0.0990
1235 C_t :4f2-   0.0134  -0.0153  -0.0036  -0.0011  -0.0275   0.0276   0.0021
1237 C_t :4f0   -0.0083   0.0108   0.0026   0.0012   0.0141  -0.0119  -0.0006
1249 C_u :2pz   -0.1496   0.1819  -0.0081  -0.2125  -0.2365   0.2507  -0.2496
1255 C_u :2pz   -0.0032   0.0215   0.0040  -0.0182  -0.0331   0.0349  -0.0459
1258 C_u :2pz    0.1551   0.0493   0.2825   0.0533  -0.0771  -0.0332  -0.1641
1261 C_u :2pz   -0.0050  -0.0068   0.0215  -0.0030   0.0090  -0.0063   0.0266
1270 C_u :3d1+  -0.0086   0.0100  -0.0029  -0.0104  -0.0106   0.0096  -0.0077
1275 C_u :3d1+  -0.0081   0.0213   0.0227  -0.0220  -0.0260   0.0230  -0.0272
1278 C_u :3d1-  -0.0180   0.0019   0.0191  -0.0191  -0.0036   0.0162   0.0030
1280 C_u :3d1+   0.0357   0.0074  -0.0375   0.0280  -0.0070  -0.0199  -0.0158
1297 C_u :4f2-   0.0037  -0.0012   0.0155  -0.0002   0.0004  -0.0007   0.0008
1299 C_u :4f0    0.0019  -0.0016   0.0101   0.0012   0.0011  -0.0006  -0.0002
1301 C_u :4f2+  -0.0009   0.0017  -0.0112   0.0022   0.0017  -0.0023   0.0014
1311 C_v :2pz   -0.1836   0.2033  -0.0174  -0.2074  -0.1958   0.1657  -0.1212
1317 C_v :2pz   -0.0076  -0.0013   0.0141  -0.0030  -0.0045   0.0097  -0.0091
1320 C_v :2pz   -0.0518   0.0777  -0.2403  -0.0653  -0.1002   0.0987  -0.0630
1323 C_v :2pz    0.0117  -0.0146  -0.0617   0.0213   0.0090  -0.0049  -0.0242
1332 C_v :3d1+   0.0052  -0.0067  -0.0005   0.0089   0.0109  -0.0130   0.0143
1335 C_v :3d1-  -0.0254   0.0343  -0.0184  -0.0284  -0.0324   0.0288  -0.0269
1337 C_v :3d1+  -0.0053   0.0291   0.0028  -0.0251  -0.0343   0.0270  -0.0226
1340 C_v :3d1-   0.0480   0.0345   0.0025   0.0201  -0.0448   0.0014  -0.0850
1342 C_v :3d1+   0.0459   0.0138  -0.0071   0.0290  -0.0229  -0.0104  -0.0496
1359 C_v :4f2-   0.0013   0.0080  -0.0226  -0.0026  -0.0064   0.0026   0.0013
1363 C_v :4f2+   0.0051  -0.0064  -0.0293   0.0068   0.0048  -0.0050   0.0060
1373 N_a :2pz    0.1209   0.1607   0.0231   0.1815  -0.1963  -0.2047  -0.2084
1379 N_a :2pz    0.0082   0.0135   0.0023   0.0147  -0.0186  -0.0204  -0.0240
1382 N_a :2pz    0.0115   0.0299   0.0085   0.0299  -0.0408  -0.0437  -0.0571
1385 N_a :2pz    0.0012  -0.0060  -0.0011  -0.0041   0.0095   0.0079   0.0127
1402 N_a :3d1-  -0.0014  -0.0107  -0.0034  -0.0057   0.0100   0.0067   0.0135
1435 N_b :2pz    0.0232  -0.0233   0.0087   0.0193   0.0143  -0.0060  -0.0039
1444 N_b :2pz   -0.0750   0.0088  -0.1085  -0.0429  -0.0046   0.0481   0.0050
1447 N_b :2pz    0.0066   0.0148   0.0080   0.0031  -0.0070  -0.0111   0.0013
1451 N_b :3d1+  -0.0009   0.0013  -0.0195   0.0014  -0.0007   0.0010  -0.0011
1454 N_b :3d1-  -0.0059   0.0071   0.0151  -0.0108  -0.0105   0.0113  -0.0117
[...]
      ----------------------------------------------------------------
         1    1.32562D-01  0.00D+00  1.33D-01  6.34D+01    0.00000D+00
         2    1.37589D-01  0.00D+00  1.38D-01  6.57D+01    1.64000D-02
         3    1.54852D-01  0.00D+00  1.55D-01  7.37D+01    3.28000D-02

 ** RSPCTL MICROITERATION NUMBER    7

       No.  Residual tot.,    conf., and orb.    Bnorm      Frequency 
      ----------------------------------------------------------------
         1    4.30057D-02  0.00D+00  4.30D-02  6.34D+01    0.00000D+00
         2    4.48779D-02  0.00D+00  4.49D-02  6.57D+01    1.64000D-02
         3    5.13780D-02  0.00D+00  5.14D-02  7.37D+01    3.28000D-02

 *** THE REQUESTED    3 SOLUTION VECTORS CONVERGED

 Convergence of RSP solution vectors, threshold = 1.00D-03
 ---------------------------------------------------------------
 (dimension of paired reduced space:   42)
 RSP solution vector no.    1; norm of residual   6.79D-04
 RSP solution vector no.    2; norm of residual   6.83D-04
 RSP solution vector no.    3; norm of residual   6.97D-04

 *** RSPCTL MICROITERATIONS CONVERGED

@ QRLRVE: SINGLET SOLUTION FOR SYMMETRY    1  ( A  )    LABEL   YDIPLEN     FREQUENCY   0.000000D+00

@ QRLRVE:  << XDIPLEN  ; YDIPLEN  >> (   0.00000):     853.360232195    

@ QRLRVE:  << YDIPLEN  ; YDIPLEN  >> (   0.00000):     895.653624254    

@ QRLRVE:  << ZDIPLEN  ; YDIPLEN  >> (   0.00000):    2.323387377865E-13

@ QRLRVE: SINGLET SOLUTION FOR SYMMETRY    1  ( A  )    LABEL   YDIPLEN     FREQUENCY   0.164000D-01

@ QRLRVE:  << XDIPLEN  ; YDIPLEN  >> (   0.01640):     877.357102326    

@ QRLRVE:  << YDIPLEN  ; YDIPLEN  >> (   0.01640):     914.396477844    

@ QRLRVE:  << ZDIPLEN  ; YDIPLEN  >> (   0.01640):    2.369846887236E-13

@ QRLRVE: SINGLET SOLUTION FOR SYMMETRY    1  ( A  )    LABEL   YDIPLEN     FREQUENCY   0.328000D-01

@ QRLRVE:  << XDIPLEN  ; YDIPLEN  >> (   0.03280):     958.274929101    

@ QRLRVE:  << YDIPLEN  ; YDIPLEN  >> (   0.03280):     977.520615952    

@ QRLRVE:  << ZDIPLEN  ; YDIPLEN  >> (   0.03280):    2.525343227187E-13


 QRLRVE -- linear response calculation for symmetry  1  ( A  )
 QRLRVE -- operator label : ZDIPLEN 
 QRLRVE -- operator spin  :   0
 QRLRVE -- frequencies :  0.000000  0.016400  0.032800



 ---  SOLVING SETS OF LINEAR EQUATIONS FOR LINEAR RESPONSE PROPERTIES ---

 Operator symmetry = 1  ( A  ); triplet =   F


 ** RSPCTL MICROITERATION NUMBER    1

       No.  Residual tot.,    conf., and orb.    Bnorm      Frequency 
      ----------------------------------------------------------------
         1    4.06166D+00  0.00D+00  4.06D+00  1.05D+01    0.00000D+00
         2    4.06412D+00  0.00D+00  4.06D+00  1.06D+01    1.64000D-02
         3    4.07154D+00  0.00D+00  4.07D+00  1.06D+01    3.28000D-02

 ** RSPCTL MICROITERATION NUMBER    2

       No.  Residual tot.,    conf., and orb.    Bnorm      Frequency 
      ----------------------------------------------------------------
         1    1.00807D+00  0.00D+00  1.01D+00  1.10D+01    0.00000D+00
         2    1.00992D+00  0.00D+00  1.01D+00  1.10D+01    1.64000D-02
         3    1.01551D+00  0.00D+00  1.02D+00  1.11D+01    3.28000D-02

 ** RSPCTL MICROITERATION NUMBER    3

       No.  Residual tot.,    conf., and orb.    Bnorm      Frequency 
      ----------------------------------------------------------------
         1    1.98804D-01  0.00D+00  1.99D-01  1.10D+01    0.00000D+00
         2    1.99659D-01  0.00D+00  2.00D-01  1.11D+01    1.64000D-02
         3    2.02256D-01  0.00D+00  2.02D-01  1.11D+01    3.28000D-02

 ** RSPCTL MICROITERATION NUMBER    4

       No.  Residual tot.,    conf., and orb.    Bnorm      Frequency 
      ----------------------------------------------------------------
         1    6.05366D-02  0.00D+00  6.05D-02  1.10D+01    0.00000D+00
         2    6.11471D-02  0.00D+00  6.11D-02  1.11D+01    1.64000D-02
         3    6.30344D-02  0.00D+00  6.30D-02  1.12D+01    3.28000D-02

 ** RSPCTL MICROITERATION NUMBER    5

       No.  Residual tot.,    conf., and orb.    Bnorm      Frequency 
      ----------------------------------------------------------------
         1    2.14935D-02  0.00D+00  2.15D-02  1.11D+01    0.00000D+00
         2    2.19109D-02  0.00D+00  2.19D-02  1.11D+01    1.64000D-02
         3    2.32137D-02  0.00D+00  2.32D-02  1.12D+01    3.28000D-02

 ** RSPCTL MICROITERATION NUMBER    6

       No.  Residual tot.,    conf., and orb.    Bnorm      Frequency 
      ----------------------------------------------------------------
         1    7.94577D-03  0.00D+00  7.95D-03  1.11D+01    0.00000D+00
         2    8.15742D-03  0.00D+00  8.16D-03  1.11D+01    1.64000D-02
         3    8.82316D-03  0.00D+00  8.82D-03  1.12D+01    3.28000D-02

 *** THE REQUESTED    3 SOLUTION VECTORS CONVERGED

 Convergence of RSP solution vectors, threshold = 1.00D-03
 ---------------------------------------------------------------
 (dimension of paired reduced space:   36)
 RSP solution vector no.    1; norm of residual   7.19D-04
 RSP solution vector no.    2; norm of residual   7.36D-04
 RSP solution vector no.    3; norm of residual   7.91D-04

 *** RSPCTL MICROITERATIONS CONVERGED

@ QRLRVE: SINGLET SOLUTION FOR SYMMETRY    1  ( A  )    LABEL   ZDIPLEN     FREQUENCY   0.000000D+00

@ QRLRVE:  << XDIPLEN  ; ZDIPLEN  >> (   0.00000):    1.300112300033E-13

@ QRLRVE:  << YDIPLEN  ; ZDIPLEN  >> (   0.00000):    1.735670159001E-13

@ QRLRVE:  << ZDIPLEN  ; ZDIPLEN  >> (   0.00000):     174.662522261    

@ QRLRVE: SINGLET SOLUTION FOR SYMMETRY    1  ( A  )    LABEL   ZDIPLEN     FREQUENCY   0.164000D-01

@ QRLRVE:  << XDIPLEN  ; ZDIPLEN  >> (   0.01640):    1.329107855175E-13

@ QRLRVE:  << YDIPLEN  ; ZDIPLEN  >> (   0.01640):    1.754728283537E-13

@ QRLRVE:  << ZDIPLEN  ; ZDIPLEN  >> (   0.01640):     174.829838031    

@ QRLRVE: SINGLET SOLUTION FOR SYMMETRY    1  ( A  )    LABEL   ZDIPLEN     FREQUENCY   0.328000D-01

@ QRLRVE:  << XDIPLEN  ; ZDIPLEN  >> (   0.03280):    1.425930931524E-13

@ QRLRVE:  << YDIPLEN  ; ZDIPLEN  >> (   0.03280):    1.818949526136E-13

@ QRLRVE:  << ZDIPLEN  ; ZDIPLEN  >> (   0.03280):     175.335194064    
 
 ======================================================================
 ---  L I N E A R   R E S P O N S E   F U N C T I O N S --- 
 ======================================================================

 The -<<A;B>>(omega_b) functions from vectors generated
 in a *QUADRA calculation of <<A;B,C>>(omega_b,omega_c)

 Note: the accuracy of off-diagonal elements will be linear
 in the convergence threshold THCLR =  1.00D-03


 Perturbation symmetry.     KSYMOP:           1
 Perturbation spin symmetry.TRPLET:           F
 Orbital variables.         KZWOPT:      197160
 Configuration variables.   KZCONF:           0
 Total number of variables. KZVAR :      197160

@ Singlet linear response function in a.u.

@ A operator, symmetry, frequency:   XDIPLEN    1 -0.000000
@ B operator, symmetry, frequency:   XDIPLEN    1  0.000000

@ Value of linear response -<<A;B>>(omega):    1351.456161959334

@ Singlet linear response function in a.u.

@ A operator, symmetry, frequency:   YDIPLEN    1 -0.000000
@ B operator, symmetry, frequency:   XDIPLEN    1  0.000000

@ Value of linear response -<<A;B>>(omega):     853.345937968847

@ Singlet linear response function in a.u.

@ A operator, symmetry, frequency:   ZDIPLEN    1 -0.000000
@ B operator, symmetry, frequency:   XDIPLEN    1  0.000000

@ Value of linear response -<<A;B>>(omega):       0.000000000000

@ Singlet linear response function in a.u.

@ A operator, symmetry, frequency:   XDIPLEN    1 -0.016400
@ B operator, symmetry, frequency:   XDIPLEN    1  0.016400

@ Value of linear response -<<A;B>>(omega):    1382.903350491475

@ Singlet linear response function in a.u.

@ A operator, symmetry, frequency:   YDIPLEN    1 -0.016400
@ B operator, symmetry, frequency:   XDIPLEN    1  0.016400

@ Value of linear response -<<A;B>>(omega):     877.342461136644

@ Singlet linear response function in a.u.

@ A operator, symmetry, frequency:   ZDIPLEN    1 -0.016400
@ B operator, symmetry, frequency:   XDIPLEN    1  0.016400

@ Value of linear response -<<A;B>>(omega):       0.000000000000

@ Singlet linear response function in a.u.

@ A operator, symmetry, frequency:   XDIPLEN    1 -0.000000
@ B operator, symmetry, frequency:   YDIPLEN    1  0.000000

@ Value of linear response -<<A;B>>(omega):     853.360232195098

@ Singlet linear response function in a.u.

@ A operator, symmetry, frequency:   YDIPLEN    1 -0.000000
@ B operator, symmetry, frequency:   YDIPLEN    1  0.000000

@ Value of linear response -<<A;B>>(omega):     895.653624253607

@ Singlet linear response function in a.u.

@ A operator, symmetry, frequency:   ZDIPLEN    1 -0.000000
@ B operator, symmetry, frequency:   YDIPLEN    1  0.000000

@ Value of linear response -<<A;B>>(omega):       0.000000000000

@ Singlet linear response function in a.u.

@ A operator, symmetry, frequency:   XDIPLEN    1 -0.016400
@ B operator, symmetry, frequency:   YDIPLEN    1  0.016400

@ Value of linear response -<<A;B>>(omega):     877.357102325655

@ Singlet linear response function in a.u.

@ A operator, symmetry, frequency:   YDIPLEN    1 -0.016400
@ B operator, symmetry, frequency:   YDIPLEN    1  0.016400

@ Value of linear response -<<A;B>>(omega):     914.396477843650

@ Singlet linear response function in a.u.

@ A operator, symmetry, frequency:   ZDIPLEN    1 -0.016400
@ B operator, symmetry, frequency:   YDIPLEN    1  0.016400

@ Value of linear response -<<A;B>>(omega):       0.000000000000

@ Singlet linear response function in a.u.

@ A operator, symmetry, frequency:   XDIPLEN    1 -0.000000
@ B operator, symmetry, frequency:   ZDIPLEN    1  0.000000

@ Value of linear response -<<A;B>>(omega):       0.000000000000

@ Singlet linear response function in a.u.

@ A operator, symmetry, frequency:   YDIPLEN    1 -0.000000
@ B operator, symmetry, frequency:   ZDIPLEN    1  0.000000

@ Value of linear response -<<A;B>>(omega):       0.000000000000

@ Singlet linear response function in a.u.

@ A operator, symmetry, frequency:   ZDIPLEN    1 -0.000000
@ B operator, symmetry, frequency:   ZDIPLEN    1  0.000000

@ Value of linear response -<<A;B>>(omega):     174.662522260989

@ Singlet linear response function in a.u.

@ A operator, symmetry, frequency:   XDIPLEN    1 -0.016400
@ B operator, symmetry, frequency:   ZDIPLEN    1  0.016400

@ Value of linear response -<<A;B>>(omega):       0.000000000000

@ Singlet linear response function in a.u.

@ A operator, symmetry, frequency:   YDIPLEN    1 -0.016400
@ B operator, symmetry, frequency:   ZDIPLEN    1  0.016400

@ Value of linear response -<<A;B>>(omega):       0.000000000000

@ Singlet linear response function in a.u.

@ A operator, symmetry, frequency:   ZDIPLEN    1 -0.016400
@ B operator, symmetry, frequency:   ZDIPLEN    1  0.016400

@ Value of linear response -<<A;B>>(omega):     174.829838030909


  Results from quadratic response calculation
 --------------------------------------------

@ B-freq = 0.000000  C-freq = 0.000000     beta(X;X,X) =  29866.63883723
@ B-freq = 0.000000  C-freq = 0.000000     beta(Y;X,X) =  31038.75224801
@ B-freq = 0.000000  C-freq = 0.000000     beta(Z;X,X) =      0.00000000
@ B-freq = 0.016400  C-freq = 0.000000     beta(X;X,X) =  31909.27038526
@ B-freq = 0.016400  C-freq = 0.000000     beta(Y;X,X) =  32879.29106806
@ B-freq = 0.016400  C-freq = 0.000000     beta(Z;X,X) =      0.00000000
@ B-freq = 0.000000  C-freq = 0.000000     beta(X;Y,X) = beta(Y,X,X)
@ B-freq = 0.000000  C-freq = 0.000000     beta(X;Y,X) =  31038.74954095
@ B-freq = 0.000000  C-freq = 0.000000     beta(Y;Y,X) =  30939.51110046
@ B-freq = 0.000000  C-freq = 0.000000     beta(Z;Y,X) =      0.00000000
@ B-freq = 0.016400  C-freq = 0.000000     beta(X;Y,X) =  32879.28824348
@ B-freq = 0.016400  C-freq = 0.000000     beta(Y;Y,X) =  32573.78165880
@ B-freq = 0.016400  C-freq = 0.000000     beta(Z;Y,X) =      0.00000000
@ B-freq = 0.000000  C-freq = 0.000000     beta(X;Z,X) = beta(Z,X,X)
@ B-freq = 0.000000  C-freq = 0.000000     beta(Y;Z,X) = beta(Z,Y,X)
@ B-freq = 0.000000  C-freq = 0.000000     beta(X;Z,X) =      0.00000000
@ B-freq = 0.000000  C-freq = 0.000000     beta(Y;Z,X) =      0.00000000
@ B-freq = 0.000000  C-freq = 0.000000     beta(Z;Z,X) =    -26.27764654
@ B-freq = 0.016400  C-freq = 0.000000     beta(X;Z,X) =      0.00000000
@ B-freq = 0.016400  C-freq = 0.000000     beta(Y;Z,X) =      0.00000000
@ B-freq = 0.016400  C-freq = 0.000000     beta(Z;Z,X) =    -26.78499239
@ B-freq = 0.000000  C-freq = 0.016400     beta(X;X,X) = beta(X,X,X)
@ B-freq = 0.000000  C-freq = 0.016400     beta(Y;X,X) = beta(Y,X,X)
@ B-freq = 0.000000  C-freq = 0.016400     beta(Z;X,X) = beta(Z,X,X)
@ B-freq = 0.016400  C-freq = 0.016400     beta(X;X,X) =  36608.38867406
@ B-freq = 0.016400  C-freq = 0.016400     beta(Y;X,X) =  36826.38432360
@ B-freq = 0.016400  C-freq = 0.016400     beta(Z;X,X) =      0.00000000
@ B-freq = 0.000000  C-freq = 0.016400     beta(X;Y,X) =  33106.79289731
@ B-freq = 0.000000  C-freq = 0.016400     beta(Y;Y,X) =  32768.89944882
@ B-freq = 0.000000  C-freq = 0.016400     beta(Z;Y,X) =      0.00000000
@ B-freq = 0.016400  C-freq = 0.016400     beta(X;Y,X) =  37601.58940742
@ B-freq = 0.016400  C-freq = 0.016400     beta(Y;Y,X) =  36506.39842574
@ B-freq = 0.016400  C-freq = 0.016400     beta(Z;Y,X) =      0.00000000
@ B-freq = 0.000000  C-freq = 0.016400     beta(X;Z,X) =      0.00000000
@ B-freq = 0.000000  C-freq = 0.016400     beta(Y;Z,X) =      0.00000000
@ B-freq = 0.000000  C-freq = 0.016400     beta(Z;Z,X) =    -26.63718866
@ B-freq = 0.016400  C-freq = 0.016400     beta(X;Z,X) =      0.00000000
@ B-freq = 0.016400  C-freq = 0.016400     beta(Y;Z,X) =      0.00000000
@ B-freq = 0.016400  C-freq = 0.016400     beta(Z;Z,X) =    -27.69669031
@ B-freq = 0.000000  C-freq = 0.000000     beta(X;X,Y) = beta(Y,X,X)
@ B-freq = 0.000000  C-freq = 0.000000     beta(Y;X,Y) = beta(Y,Y,X)
@ B-freq = 0.000000  C-freq = 0.000000     beta(Z;X,Y) = beta(Z,Y,X)
@ B-freq = 0.016400  C-freq = 0.000000     beta(X;X,Y) = beta(X,Y,X)
@ B-freq = 0.016400  C-freq = 0.000000     beta(Y;X,Y) = beta(Y,Y,X)
@ B-freq = 0.016400  C-freq = 0.000000     beta(Z;X,Y) = beta(Z,Y,X)
@ B-freq = 0.000000  C-freq = 0.000000     beta(X;Y,Y) = beta(Y,Y,X)
@ B-freq = 0.000000  C-freq = 0.000000     beta(X;Y,Y) =  30939.50901383
@ B-freq = 0.000000  C-freq = 0.000000     beta(Y;Y,Y) =  29901.87995733
@ B-freq = 0.000000  C-freq = 0.000000     beta(Z;Y,Y) =      0.00000000
@ B-freq = 0.016400  C-freq = 0.000000     beta(X;Y,Y) =  32768.89727246
@ B-freq = 0.016400  C-freq = 0.000000     beta(Y;Y,Y) =  31502.81089606
@ B-freq = 0.016400  C-freq = 0.000000     beta(Z;Y,Y) =      0.00000000
@ B-freq = 0.000000  C-freq = 0.000000     beta(X;Z,Y) = beta(Z,Y,X)
@ B-freq = 0.000000  C-freq = 0.000000     beta(Y;Z,Y) = beta(Z,Y,Y)
@ B-freq = 0.000000  C-freq = 0.000000     beta(X;Z,Y) =      0.00000000
@ B-freq = 0.000000  C-freq = 0.000000     beta(Y;Z,Y) =      0.00000000
@ B-freq = 0.000000  C-freq = 0.000000     beta(Z;Z,Y) =    -26.34395764
@ B-freq = 0.016400  C-freq = 0.000000     beta(X;Z,Y) =      0.00000000
@ B-freq = 0.016400  C-freq = 0.000000     beta(Y;Z,Y) =      0.00000000
@ B-freq = 0.016400  C-freq = 0.000000     beta(Z;Z,Y) =    -26.75464838
@ B-freq = 0.000000  C-freq = 0.016400     beta(X;X,Y) = beta(X,Y,X)
@ B-freq = 0.000000  C-freq = 0.016400     beta(Y;X,Y) = beta(Y,Y,X)
@ B-freq = 0.000000  C-freq = 0.016400     beta(Z;X,Y) = beta(Z,Y,X)
@ B-freq = 0.016400  C-freq = 0.016400     beta(X;X,Y) = beta(X,Y,X)
@ B-freq = 0.016400  C-freq = 0.016400     beta(Y;X,Y) = beta(Y,Y,X)
@ B-freq = 0.016400  C-freq = 0.016400     beta(Z;X,Y) = beta(Z,Y,X)
@ B-freq = 0.000000  C-freq = 0.016400     beta(X;Y,Y) = beta(X,Y,Y)
@ B-freq = 0.000000  C-freq = 0.016400     beta(Y;Y,Y) = beta(Y,Y,Y)
@ B-freq = 0.000000  C-freq = 0.016400     beta(Z;Y,Y) = beta(Z,Y,Y)
@ B-freq = 0.016400  C-freq = 0.016400     beta(X;Y,Y) =  37172.08237824
@ B-freq = 0.016400  C-freq = 0.016400     beta(Y;Y,Y) =  35142.48646046
@ B-freq = 0.016400  C-freq = 0.016400     beta(Z;Y,Y) =      0.00000000
@ B-freq = 0.000000  C-freq = 0.016400     beta(X;Z,Y) =      0.00000000
@ B-freq = 0.000000  C-freq = 0.016400     beta(Y;Z,Y) =      0.00000000
@ B-freq = 0.000000  C-freq = 0.016400     beta(Z;Z,Y) =    -26.61417688
@ B-freq = 0.016400  C-freq = 0.016400     beta(X;Z,Y) =      0.00000000
@ B-freq = 0.016400  C-freq = 0.016400     beta(Y;Z,Y) =      0.00000000
@ B-freq = 0.016400  C-freq = 0.016400     beta(Z;Z,Y) =    -27.46991984
@ B-freq = 0.000000  C-freq = 0.000000     beta(X;X,Z) = beta(Z,X,X)
@ B-freq = 0.000000  C-freq = 0.000000     beta(Y;X,Z) = beta(Z,Y,X)
@ B-freq = 0.000000  C-freq = 0.000000     beta(Z;X,Z) = beta(Z,Z,X)
@ B-freq = 0.016400  C-freq = 0.000000     beta(X;X,Z) = beta(X,Z,X)
@ B-freq = 0.016400  C-freq = 0.000000     beta(Y;X,Z) = beta(Y,Z,X)
@ B-freq = 0.016400  C-freq = 0.000000     beta(Z;X,Z) = beta(Z,Z,X)
@ B-freq = 0.000000  C-freq = 0.000000     beta(X;Y,Z) = beta(Z,Y,X)
@ B-freq = 0.000000  C-freq = 0.000000     beta(Y;Y,Z) = beta(Z,Y,Y)
@ B-freq = 0.000000  C-freq = 0.000000     beta(Z;Y,Z) = beta(Z,Z,Y)
@ B-freq = 0.016400  C-freq = 0.000000     beta(X;Y,Z) = beta(X,Z,Y)
@ B-freq = 0.016400  C-freq = 0.000000     beta(Y;Y,Z) = beta(Y,Z,Y)
@ B-freq = 0.016400  C-freq = 0.000000     beta(Z;Y,Z) = beta(Z,Z,Y)
@ B-freq = 0.000000  C-freq = 0.000000     beta(X;Z,Z) = beta(Z,Z,X)
@ B-freq = 0.000000  C-freq = 0.000000     beta(Y;Z,Z) = beta(Z,Z,Y)
@ B-freq = 0.000000  C-freq = 0.000000     beta(X;Z,Z) =    -26.27756019
@ B-freq = 0.000000  C-freq = 0.000000     beta(Y;Z,Z) =    -26.34388093
@ B-freq = 0.000000  C-freq = 0.000000     beta(Z;Z,Z) =      0.00000000
@ B-freq = 0.016400  C-freq = 0.000000     beta(X;Z,Z) =    -26.63709878
@ B-freq = 0.016400  C-freq = 0.000000     beta(Y;Z,Z) =    -26.61409747
@ B-freq = 0.016400  C-freq = 0.000000     beta(Z;Z,Z) =      0.00000000
@ B-freq = 0.000000  C-freq = 0.016400     beta(X;X,Z) = beta(X,Z,X)
@ B-freq = 0.000000  C-freq = 0.016400     beta(Y;X,Z) = beta(Y,Z,X)
@ B-freq = 0.000000  C-freq = 0.016400     beta(Z;X,Z) = beta(Z,Z,X)
@ B-freq = 0.016400  C-freq = 0.016400     beta(X;X,Z) = beta(X,Z,X)
@ B-freq = 0.016400  C-freq = 0.016400     beta(Y;X,Z) = beta(Y,Z,X)
@ B-freq = 0.016400  C-freq = 0.016400     beta(Z;X,Z) = beta(Z,Z,X)
@ B-freq = 0.000000  C-freq = 0.016400     beta(X;Y,Z) = beta(X,Z,Y)
@ B-freq = 0.000000  C-freq = 0.016400     beta(Y;Y,Z) = beta(Y,Z,Y)
@ B-freq = 0.000000  C-freq = 0.016400     beta(Z;Y,Z) = beta(Z,Z,Y)
@ B-freq = 0.016400  C-freq = 0.016400     beta(X;Y,Z) = beta(X,Z,Y)
@ B-freq = 0.016400  C-freq = 0.016400     beta(Y;Y,Z) = beta(Y,Z,Y)
@ B-freq = 0.016400  C-freq = 0.016400     beta(Z;Y,Z) = beta(Z,Z,Y)
@ B-freq = 0.000000  C-freq = 0.016400     beta(X;Z,Z) = beta(X,Z,Z)
@ B-freq = 0.000000  C-freq = 0.016400     beta(Y;Z,Z) = beta(Y,Z,Z)
@ B-freq = 0.000000  C-freq = 0.016400     beta(Z;Z,Z) = beta(Z,Z,Z)
@ B-freq = 0.016400  C-freq = 0.016400     beta(X;Z,Z) =    -27.21669810
@ B-freq = 0.016400  C-freq = 0.016400     beta(Y;Z,Z) =    -27.01757387
@ B-freq = 0.016400  C-freq = 0.016400     beta(Z;Z,Z) =      0.00000000

  Total CPU  time used in RESPONSE:   5 hours  1 minute   7 seconds
  Total wall time used in RESPONSE:   5 hours  2 minutes 27 seconds


                   .-------------------------------------------.
                   | End of Dynamic Property Section (RESPONS) |
                   `-------------------------------------------'

  Total CPU  time used in DALTON:   6 hours 32 minutes 38 seconds
  Total wall time used in DALTON:   6 hours 34 minutes 25 seconds

 
     Date and time (Linux)  : Sat May 31 08:07:35 2025
     Host name              : xm052                                   
