

     ************************************************************************
     *************** Dalton - An Electronic Structure Program ***************
     ************************************************************************

    This is output from DALTON release Dalton2020.0 (2020)
         ( Web site: http://daltonprogram.org )

   ----------------------------------------------------------------------------

    NOTE:
     
    Dalton is an experimental code for the evaluation of molecular
    properties using (MC)SCF, DFT, CI, and CC wave functions.
    The authors accept no responsibility for the performance of
    the code or for the correctness of the results.
     
    The code (in whole or part) is provided under a licence and
    is not to be reproduced for further distribution without
    the written permission of the authors or their representatives.
     
    See the home page "http://daltonprogram.org" for further information.
     
    If results obtained with this code are published,
    the appropriate citations would be both of:
     
       K. Aidas, C. Angeli, K. L. Bak, V. Bakken, R. Bast,
       L. Boman, O. Christiansen, R. Cimiraglia, S. Coriani,
       P. Dahle, E. K. Dalskov, U. Ekstroem,
       T. Enevoldsen, J. J. Eriksen, P. Ettenhuber, B. Fernandez,
       L. Ferrighi, H. Fliegl, L. Frediani, K. Hald, A. Halkier,
       C. Haettig, H. Heiberg, T. Helgaker, A. C. Hennum,
       H. Hettema, E. Hjertenaes, S. Hoest, I.-M. Hoeyvik,
       M. F. Iozzi, B. Jansik, H. J. Aa. Jensen, D. Jonsson,
       P. Joergensen, J. Kauczor, S. Kirpekar,
       T. Kjaergaard, W. Klopper, S. Knecht, R. Kobayashi, H. Koch,
       J. Kongsted, A. Krapp, K. Kristensen, A. Ligabue,
       O. B. Lutnaes, J. I. Melo, K. V. Mikkelsen, R. H. Myhre,
       C. Neiss, C. B. Nielsen, P. Norman, J. Olsen,
       J. M. H. Olsen, A. Osted, M. J. Packer, F. Pawlowski,
       T. B. Pedersen, P. F. Provasi, S. Reine, Z. Rinkevicius,
       T. A. Ruden, K. Ruud, V. Rybkin, P. Salek, C. C. M. Samson,
       A. Sanchez de Meras, T. Saue, S. P. A. Sauer,
       B. Schimmelpfennig, K. Sneskov, A. H. Steindal,
       K. O. Sylvester-Hvid, P. R. Taylor, A. M. Teale,
       E. I. Tellgren, D. P. Tew, A. J. Thorvaldsen, L. Thoegersen,
       O. Vahtras, M. A. Watson, D. J. D. Wilson, M. Ziolkowski
       and H. Agren,
       "The Dalton quantum chemistry program system",
       WIREs Comput. Mol. Sci. 2014, 4:269–284 (doi: 10.1002/wcms.1172)
     
    and
     
       Dalton, a molecular electronic structure program,
       Release Dalton2020.0 (2020), see http://daltonprogram.org
   ----------------------------------------------------------------------------

    Authors in alphabetical order (Major contribution(s) in parenthesis):

  Kestutis Aidas,           Vilnius University,           Lithuania   (QM/MM)
  Celestino Angeli,         University of Ferrara,        Italy       (NEVPT2)
  Keld L. Bak,              UNI-C,                        Denmark     (AOSOPPA, non-adiabatic coupling, magnetic properties)
  Vebjoern Bakken,          University of Oslo,           Norway      (DALTON; geometry optimizer, symmetry detection)
  Radovan Bast,             UiT The Arctic U. of Norway,  Norway      (DALTON installation and execution frameworks)
  Pablo Baudin,             University of Valencia,       Spain       (Cholesky excitation energies)
  Linus Boman,              NTNU,                         Norway      (Cholesky decomposition and subsystems)
  Bruno N. Cabral Tenorio,  Technical Univ. of Denmark,   Denmark     (Lanczos-based CC methods)
  Ove Christiansen,         Aarhus University,            Denmark     (CC module)
  Renzo Cimiraglia,         University of Ferrara,        Italy       (NEVPT2)
  Sonia Coriani,            Technical Univ. of Denmark,   Denmark     (CC and RESPONS modules)
  Janusz Cukras,            University of Warsaw,         Poland      (MChD in RESPONS)
  Paal Dahle,               University of Oslo,           Norway      (Parallelization)
  Erik K. Dalskov,          UNI-C,                        Denmark     (SOPPA)
  Thomas Enevoldsen,        Univ. of Southern Denmark,    Denmark     (SOPPA)
  Janus J. Eriksen,         Aarhus University,            Denmark     (Polarizable embedding, TDA)
  Rasmus Faber,             Technical Univ. of Denmark,   Denmark     (Vib.avg. NMR w. SOPPA, parallel AO-SOPPA, CVS-CC and EOMCC)
  Tobias Fahleson,          KTH Stockholm,                Sweden      (Damped cubic response)
  Berta Fernandez,          U. of Santiago de Compostela, Spain       (Doublet spin, ESR in RESPONS)
  Lara Ferrighi,            Aarhus University,            Denmark     (PCM Cubic response)
  Heike Fliegl,             University of Oslo,           Norway      (CCSD(R12))
  Luca Frediani,            UiT The Arctic U. of Norway,  Norway      (PCM)
  Emmanuel Fromager,        Univ. Strasbourg,             France      (MC-srDFT)
  Bin Gao,                  UiT The Arctic U. of Norway,  Norway      (Gen1Int library)
  Andre S. P. Gomes,        CNRS/Universite de Lille,     France      (Frozen density embedding)
  Christof Haettig,         Ruhr-University Bochum,       Germany     (CC module)
  Kasper Hald,              Aarhus University,            Denmark     (CC module)
  Asger Halkier,            Aarhus University,            Denmark     (CC module)
  Frederik Beyer Hansen,    University of Copenhagen,     Denmark     (Parallel AO-SOPPA)
  Erik D. Hedegaard,        Univ. of Southern Denmark,    Denmark     (Polarizable embedding, QM/MM, and MC-srDFT)
  Hanne Heiberg,            University of Oslo,           Norway      (Geometry analysis, selected one-electron integrals)
  Trygve Helgaker,          University of Oslo,           Norway      (DALTON; ABACUS, ERI, DFT modules, London, and much more)
  Alf Christian Hennum,     University of Oslo,           Norway      (Parity violation)
  Hinne Hettema,            University of Auckland,       New Zealand (Quadratic response in RESPONS; SIRIUS supersymmetry)
  Eirik Hjertenaes,         NTNU,                         Norway      (Cholesky decomposition)
  Pi A. B. Haase,           University of Copenhagen,     Denmark     (Triplet AO-SOPPA)
  Maria Francesca Iozzi,    University of Oslo,           Norway      (RPA)
  Christoph Jacob           TU Braunschweig               Germany     (Frozen density embedding)
  Brano Jansik              Technical Univ. of Ostrava    Czech Rep.  (DFT cubic response)
  Hans Joergen Aa. Jensen,  Univ. of Southern Denmark,    Denmark     (DALTON; SIRIUS, RESPONS, ABACUS, MC-srDFT, and much more)
  Dan Jonsson,              UiT The Arctic U. of Norway,  Norway      (Cubic response in RESPONS module)
  Poul Joergensen,          Aarhus University,            Denmark     (RESPONS, ABACUS, and CC modules)
  Maciej Kaminski,          University of Warsaw,         Poland      (CPPh in RESPONS)
  Joanna Kauczor,           Linkoeping University,        Sweden      (Complex polarization propagator (CPP) module)
  Sheela Kirpekar,          Univ. of Southern Denmark,    Denmark     (Mass-velocity & Darwin integrals)
  Erik Kjellgren,           Univ. of Southern Denmark,    Denmark     (MC-srDFT)
  Wim Klopper,              KIT Karlsruhe,                Germany     (R12 code in CC, SIRIUS, and ABACUS modules)
  Stefan Knecht,            ETH Zurich,                   Switzerland (Parallel CI and MCSCF, MC-srDFT)
  Rika Kobayashi,           Australian National Univ.,    Australia   (DIIS in CC, London in MCSCF)
  Henrik Koch,              NTNU,                         Norway      (CC module, Cholesky decomposition)
  Jacob Kongsted,           Univ. of Southern Denmark,    Denmark     (Polarizable embedding, polarizable density embedding, QM/MM)
  Andrea Ligabue,           University of Modena,         Italy       (CTOCD, AOSOPPA)
  Nanna H. List             Univ. of Southern Denmark,    Denmark     (Polarizable embedding)
  Ola B. Lutnaes,           University of Oslo,           Norway      (DFT Hessian)
  Juan I. Melo,             University of Buenos Aires,   Argentina   (LRESC, Relativistic Effects on NMR Shieldings)
  Kurt V. Mikkelsen,        University of Copenhagen,     Denmark     (MC-SCRF and QM/MM)
  Rolf H. Myhre,            NTNU,                         Norway      (Subsystems and CC3)
  Christian Neiss,          Univ. Erlangen-Nuernberg,     Germany     (CCSD(R12))
  Christian B. Nielsen,     University of Copenhagen,     Denmark     (QM/MM)
  Patrick Norman,           KTH Stockholm,                Sweden      (Cubic response and complex frequency response in RESPONS)
  Jeppe Olsen,              Aarhus University,            Denmark     (SIRIUS CI/density modules)
  Jogvan Magnus H. Olsen,   Aarhus University,            Denmark     (Polarizable embedding and polarizable density embedding)
  Anders Osted,             Copenhagen University,        Denmark     (QM/MM)
  Martin J. Packer,         University of Sheffield,      UK          (SOPPA)
  Filip Pawlowski,          Kazimierz Wielki University,  Poland      (CC3)
  Morten N. Pedersen,       Univ. of Southern Denmark,    Denmark     (Polarizable embedding)
  Thomas B. Pedersen,       University of Oslo,           Norway      (Cholesky decomposition)
  Patricio F. Provasi,      University of Northeastern,   Argentina   (Analysis of coupling constants in localized orbitals)
  Peter Reinholdt,          Univ. of Southern Denmark,    Denmark     (Polarizable embedding and polarizable density embedding)
  Zilvinas Rinkevicius,     KTH Stockholm,                Sweden      (open-shell DFT, ESR)
  Elias Rudberg,            KTH Stockholm,                Sweden      (DFT grid and basis info)
  Torgeir A. Ruden,         University of Oslo,           Norway      (Numerical derivatives in ABACUS)
  Kenneth Ruud,             UiT The Arctic U. of Norway,  Norway      (DALTON; ABACUS magnetic properties and much more)
  Pawel Salek,              KTH Stockholm,                Sweden      (DALTON; DFT code)
  Claire C. M. Samson       University of Karlsruhe       Germany     (Boys localization, r12 integrals in ERI)
  Alfredo Sanchez de Meras, University of Valencia,       Spain       (CC module, Cholesky decomposition)
  Trond Saue,               Paul Sabatier University,     France      (direct Fock matrix construction)
  Stephan P. A. Sauer,      University of Copenhagen,     Denmark     (SOPPA(CCSD), SOPPA prop., AOSOPPA, vibrational g-factors)
  Bernd Schimmelpfennig,    Forschungszentrum Karlsruhe,  Germany     (AMFI module)
  Anna K. Schnack-Petersen, University of Copenhagen,     Denmark     (RPA(D) and HRPA(D) properties in AOSOPPA)
  Kristian Sneskov,         Aarhus University,            Denmark     (Polarizable embedding, QM/MM)
  Arnfinn H. Steindal,      UiT The Arctic U. of Norway,  Norway      (parallel QM/MM, polarizable embedding)
  Casper Steinmann,         Aalborg University,           Denmark     (QFIT, polarizable embedding)
  K. O. Sylvester-Hvid,     University of Copenhagen,     Denmark     (MC-SCRF)
  Peter R. Taylor,          VLSCI/Univ. of Melbourne,     Australia   (Symmetry handling ABACUS, integral transformation)
  Andrew M. Teale,          University of Nottingham,     England     (DFT-AC, DFT-D)
  David P. Tew,             University of Bristol,        England     (CCSD(R12))
  Julien Toulouse,          Sorbonne Univ.,               France      (MC-srDFT)
  Olav Vahtras,             KTH Stockholm,                Sweden      (Triplet response, spin-orbit, ESR, TDDFT, open-shell DFT)
  Lucas Visscher,           Vrije Universiteit Amsterdam, Netherlands (Frozen density embedding)
  David J. Wilson,          La Trobe University,          Australia   (DFT Hessian and DFT magnetizabilities)
  Hans Agren,               KTH Stockholm,                Sweden      (SIRIUS module, RESPONS, MC-SCRF solvation)
 --------------------------------------------------------------------------------

     Date and time (Linux)  : Thu May 29 16:03:40 2025
     Host name              : xm009                                   

 * Work memory size             :   131072000 = 1000.00 megabytes.

 * Directories for basis set searches:
   1) /gpfs/projects/rjh/adrian/summer2025/beta_projects/raw_data/NLO/dalton/hf/n8/dipole
   2) /gpfs/projects/rjh/adrian/dalton/build/basis


Compilation information
-----------------------

 Who compiled             | ahurtado
 Host                     | milan2
 System                   | Linux-5.14.0-427.42.1.el9_4.x86_64
 CMake generator          | Unix Makefiles
 Processor                | x86_64
 64-bit integers          | OFF
 MPI                      | ON
 Fortran compiler         | /gpfs/software/openmpi/milan/gcc13.2/4.1.6/bin/mpi
                          | f90
 Fortran compiler version | GNU Fortran (GCC) 13.2.0
 C compiler               | /gpfs/software/openmpi/milan/gcc13.2/4.1.6/bin/mpi
                          | cc
 C compiler version       | gcc (GCC) 13.2.0
 C++ compiler             | /gpfs/software/openmpi/milan/gcc13.2/4.1.6/bin/mpi
                          | cxx
 C++ compiler version     | unknown
 BLAS                     | /gpfs/software/intel/oneAPI/2024_2/mkl/2024.2/lib/
                          | intel64/libmkl_gf_lp64.so;/gpfs/software/intel/one
                          | API/2024_2/mkl/2024.2/lib/intel64/libmkl_sequentia
                          | l.so;/gpfs/software/intel/oneAPI/2024_2/mkl/2024.2
                          | /lib/intel64/libmkl_core.so;/usr/lib64/libpthread.
                          | a;/usr/lib64/libm.so
 LAPACK                   | /gpfs/software/intel/oneAPI/2024_2/mkl/2024.2/lib/
                          | intel64/libmkl_lapack95_lp64.a;/gpfs/software/inte
                          | l/oneAPI/2024_2/mkl/2024.2/lib/intel64/libmkl_gf_l
                          | p64.so
 Static linking           | OFF
 Last Git revision        | 66052b3af5ea7225e31178bf9a8b031913c72190
 Git branch               | (HEAD detached at Dalton2020.0)
 Configuration time       | 2025-04-10 16:02:31.569498

 * MPI parallel run using 576 processes.


   Content of the .dal input file
 ----------------------------------

**DALTON INPUT
.RUN RESPONSE
.DIRECT
**WAVE FUNCTIONS
.HF
**PROPERTIES
**RESPONSE
*QUADRA
.DIPLEN
.FREQUENCIES
2
0.0 0.0182
**END OF DALTON INPUT


   Content of the .mol file
 ----------------------------

BASIS
d-aug-cc-pVDZ
blah
blah
Atomtype=4 Angstrom Charge=0 Nosymmetry
Charge=6 Atoms=16
C_a 1.6519229998176075 -8.049175002179144 0.0
C_b 1.9444589988455454 -6.728077999620022 0.0
C_c 0.9366040010539604 -5.690966000374534 0.0
C_d 1.2516239989151714 -4.3572310024581675 0.0
C_e 0.27660000195709034 -3.2955410025308343 0.0
C_f 0.6103160000079801 -1.9627990003585178 0.0
C_g -0.34819400077912716 -0.8893029986516443 0.0
C_h 0.0 0.44131100203631646 0.0
C_i -0.9456049984846748 1.5250140013287934 0.0
C_j -0.5837860021820497 2.8524229979061544 0.0
C_k -1.5159250017279444 3.9479510017318074 0.0
C_l -1.1372629986153835 5.270107999161623 0.0
C_m -2.0506620021783046 6.382867002528075 0.0
C_n -1.644438999988493 7.694968997942507 0.0
C_o -2.523165000348833 8.836908002186938 0.0
C_p -2.048411998888029 10.121828000534174 0.0
Charge=7 Atoms=2
N_a -2.8041959988864313 11.262344999778092 0.0
N_b 2.7078260024374066 -9.054929002399435 0.0
Charge=8 Atoms=2
O_a 2.323730000259234 -10.230869002414845 0.0
O_b 3.8840309985246044 -8.68481800029295 0.0
Charge=1 Atoms=18
H_a 0.6520620016836924 -8.487247000469075 0.0
H_b 3.0029160011878337 -6.440803001043983 0.0
H_c -0.1199049994321818 -5.991733001657485 0.0
H_d 2.3134169978947887 -4.069848998958359 0.0
H_e -0.7863270026179043 -3.5764360025252904 0.0
H_f 1.676177001168674 -1.6897610013336615 0.0
H_g -1.4149200003001545 -1.1563959986374055 0.0
H_h 1.0690499976606709 0.702059998074365 0.0
H_i -2.0153140016928814 1.2696639992838707 0.0
H_j 0.4883619999572235 3.1008549974829505 0.0
H_k -2.588692998470783 3.705754000889098 0.0
H_l -0.061098001686370085 5.5019949980746725 0.0
H_m -3.127446999002655 6.160261999436378 0.0
H_n -0.5619530024451147 7.897245002306574 0.0
H_o -3.6077729985069977 8.662572999055104 0.0
H_p -0.9650279982016882 10.295662999994963 0.0
H_q -3.8139179973785255 11.215004002162194 0.0
H_r -2.3715529989374713 12.17301699971304 0.0


       *******************************************************************
       *********** Output from DALTON general input processing ***********
       *******************************************************************

 --------------------------------------------------------------------------------
   Overall default print level:    0
   Print level for DALTON.STAT:    1

    Parallel calculation using MPI
    AO-direct calculation (in sections where implemented)
    HERMIT 1- and 2-electron integral sections will be executed
    "Old" integral transformation used (limited to max 255 basis functions)
    Wave function sections will be executed (SIRIUS module)
    Dynamic molecular response properties section will be executed (RESPONSE module)
 --------------------------------------------------------------------------------


   ****************************************************************************
   *************** Output of molecule and basis set information ***************
   ****************************************************************************


    The two title cards from your ".mol" input:
    ------------------------------------------------------------------------
 1: blah                                                                    
 2: blah                                                                    
    ------------------------------------------------------------------------

  Coordinates are entered in Angstrom and converted to atomic units.
          - Conversion factor : 1 bohr = 0.52917721 A

  Atomic type no.    1
  --------------------
  Nuclear charge:   6.00000
  Number of symmetry independent centers:   16
  Number of basis sets to read;    2
  Basis set file used for this atomic type with Z =   6 :
     "/gpfs/projects/rjh/adrian/dalton/build/basis/aug-cc-pVDZ"

  Atomic type no.    2
  --------------------
  Nuclear charge:   7.00000
  Number of symmetry independent centers:    2
  Number of basis sets to read;    2
  Basis set file used for this atomic type with Z =   7 :
     "/gpfs/projects/rjh/adrian/dalton/build/basis/aug-cc-pVDZ"

  Atomic type no.    3
  --------------------
  Nuclear charge:   8.00000
  Number of symmetry independent centers:    2
  Number of basis sets to read;    2
  Basis set file used for this atomic type with Z =   8 :
     "/gpfs/projects/rjh/adrian/dalton/build/basis/aug-cc-pVDZ"

  Atomic type no.    4
  --------------------
  Nuclear charge:   1.00000
  Number of symmetry independent centers:   18
  Number of basis sets to read;    2
  Basis set file used for this atomic type with Z =   1 :
     "/gpfs/projects/rjh/adrian/dalton/build/basis/aug-cc-pVDZ"


                         SYMGRP: Point group information
                         -------------------------------

@    Point group: C1 


                                 Isotopic Masses
                                 ---------------

                           C_a        12.000000
                           C_b        12.000000
                           C_c        12.000000
                           C_d        12.000000
                           C_e        12.000000
                           C_f        12.000000
                           C_g        12.000000
                           C_h        12.000000
                           C_i        12.000000
                           C_j        12.000000
                           C_k        12.000000
                           C_l        12.000000
                           C_m        12.000000
                           C_n        12.000000
                           C_o        12.000000
                           C_p        12.000000
                           N_a        14.003074
                           N_b        14.003074
                           O_a        15.994915
                           O_b        15.994915
                           H_a         1.007825
                           H_b         1.007825
                           H_c         1.007825
                           H_d         1.007825
                           H_e         1.007825
                           H_f         1.007825
                           H_g         1.007825
                           H_h         1.007825
                           H_i         1.007825
                           H_j         1.007825
                           H_k         1.007825
                           H_l         1.007825
                           H_m         1.007825
                           H_n         1.007825
                           H_o         1.007825
                           H_p         1.007825
                           H_q         1.007825
                           H_r         1.007825

                       Total mass:   270.136828 amu
                       Natural abundance:  82.539 %

 Center-of-mass coordinates (a.u.):    0.084675   -0.271854    0.000000
 Center-of-mass coordinates (Angs):    0.044808   -0.143859    0.000000


  Atoms and basis sets
  --------------------

  Number of atom types :    4
  Total number of atoms:   38

  Basis set used is "d-aug-cc-pVDZ" from the basis set library.

  label    atoms   charge   prim   cont     basis
  ----------------------------------------------------------------------
  C_         16    6.0000    44    32      [11s6p3d|5s4p3d]                                   
  N_          2    7.0000    44    32      [11s6p3d|5s4p3d]                                   
  O_          2    8.0000    44    32      [11s6p3d|5s4p3d]                                   
  H_         18    1.0000    15    13      [6s3p|4s3p]                                        
  ----------------------------------------------------------------------
  total:     38  144.0000  1150   874
  ----------------------------------------------------------------------
  Spherical harmonic basis used.

  Threshold for neglecting AO integrals:  1.00D-12

  Max    interatomic separation is   22.8906 Angstrom (   43.2570 Bohr)
  between atoms   38 and   19, "H_r   " and "O_a   ".

  Min HX interatomic separation is    1.0082 Angstrom (    1.9053 Bohr)

  Min YX interatomic separation is    1.2331 Angstrom (    2.3301 Bohr)


  Bond distances (Angstrom):
  --------------------------

                  atom 1     atom 2       distance
                  ------     ------       --------
  bond distance:  C_b        C_a          1.353098
  bond distance:  C_c        C_b          1.446158
  bond distance:  C_d        C_c          1.370433
  bond distance:  C_e        C_d          1.441478
  bond distance:  C_f        C_e          1.373888
  bond distance:  C_g        C_f          1.439144
  bond distance:  C_h        C_g          1.375417
  bond distance:  C_i        C_h          1.438256
  bond distance:  C_j        C_i          1.375837
  bond distance:  C_k        C_j          1.438424
  bond distance:  C_l        C_k          1.375312
  bond distance:  C_m        C_l          1.439629
  bond distance:  C_n        C_m          1.373546
  bond distance:  C_o        C_n          1.440897
  bond distance:  C_p        C_o          1.369821
  bond distance:  N_a        C_p          1.368206
  bond distance:  N_b        C_a          1.458243
  bond distance:  O_a        N_b          1.237079
  bond distance:  O_b        N_b          1.233061
  bond distance:  H_a        C_a          1.091618
  bond distance:  H_b        C_b          1.096749
  bond distance:  H_c        C_c          1.098486
  bond distance:  H_d        C_d          1.099997
  bond distance:  H_e        C_e          1.099416
  bond distance:  H_f        C_f          1.100277
  bond distance:  H_g        C_g          1.099656
  bond distance:  H_h        C_h          1.100390
  bond distance:  H_i        C_i          1.099764
  bond distance:  H_j        C_j          1.100554
  bond distance:  H_k        C_k          1.099768
  bond distance:  H_l        C_l          1.100865
  bond distance:  H_m        C_m          1.099554
  bond distance:  H_n        C_n          1.101223
  bond distance:  H_o        C_o          1.098530
  bond distance:  H_p        C_p          1.097242
  bond distance:  H_q        N_a          1.010831
  bond distance:  H_r        N_a          1.008218


  Bond angles (degrees):
  ----------------------

                  atom 1     atom 2     atom 3         angle
                  ------     ------     ------         -----
  bond angle:     C_b        C_a        N_b          121.121
  bond angle:     C_b        C_a        H_a          126.146
  bond angle:     N_b        C_a        H_a          112.734
  bond angle:     C_a        C_b        C_c          123.334
  bond angle:     C_a        C_b        H_b          117.671
  bond angle:     C_c        C_b        H_b          118.996
  bond angle:     C_b        C_c        C_d          122.530
  bond angle:     C_b        C_c        H_c          118.290
  bond angle:     C_d        C_c        H_c          119.180
  bond angle:     C_c        C_d        C_e          124.147
  bond angle:     C_c        C_d        H_d          118.434
  bond angle:     C_e        C_d        H_d          117.419
  bond angle:     C_d        C_e        C_f          123.379
  bond angle:     C_d        C_e        H_e          117.761
  bond angle:     C_f        C_e        H_e          118.861
  bond angle:     C_e        C_f        C_g          124.181
  bond angle:     C_e        C_f        H_f          118.426
  bond angle:     C_g        C_f        H_f          117.393
  bond angle:     C_f        C_g        C_h          123.574
  bond angle:     C_f        C_g        H_g          117.704
  bond angle:     C_h        C_g        H_g          118.721
  bond angle:     C_g        C_h        C_i          124.229
  bond angle:     C_g        C_h        H_h          118.372
  bond angle:     C_i        C_h        H_h          117.400
  bond angle:     C_h        C_i        C_j          123.646
  bond angle:     C_h        C_i        H_i          117.681
  bond angle:     C_j        C_i        H_i          118.673
  bond angle:     C_i        C_j        C_k          124.360
  bond angle:     C_i        C_j        H_j          118.293
  bond angle:     C_k        C_j        H_j          117.347
  bond angle:     C_j        C_k        C_l          123.625
  bond angle:     C_j        C_k        H_k          117.671
  bond angle:     C_l        C_k        H_k          118.704
  bond angle:     C_k        C_l        C_m          124.638
  bond angle:     C_k        C_l        H_l          118.141
  bond angle:     C_m        C_l        H_l          117.221
  bond angle:     C_l        C_m        C_n          123.417
  bond angle:     C_l        C_m        H_m          117.700
  bond angle:     C_n        C_m        H_m          118.883
  bond angle:     C_m        C_n        C_o          125.219
  bond angle:     C_m        C_n        H_n          117.787
  bond angle:     C_o        C_n        H_n          116.994
  bond angle:     C_n        C_o        C_p          122.143
  bond angle:     C_n        C_o        H_o          118.447
  bond angle:     C_p        C_o        H_o          119.410
  bond angle:     C_o        C_p        N_a          126.191
  bond angle:     C_o        C_p        H_p          119.394
  bond angle:     N_a        C_p        H_p          114.415
  bond angle:     C_p        N_a        H_q          120.847
  bond angle:     C_p        N_a        H_r          121.057
  bond angle:     H_q        N_a        H_r          118.096
  bond angle:     C_a        N_b        O_a          115.518
  bond angle:     C_a        N_b        O_b          118.926
  bond angle:     O_a        N_b        O_b          125.556




 Principal moments of inertia (u*A**2) and principal axes
 --------------------------------------------------------

   IA     106.400601         -0.256912    0.966435    0.000000
   IB   13629.472743          0.966435    0.256912    0.000000
   IC   13735.873344          0.000000    0.000000    1.000000


 Rotational constants
 --------------------

@    The molecule is planar.

               A                   B                   C

           4749.7759             37.0799             36.7926 MHz
            0.158435            0.001237            0.001227 cm-1


@  Nuclear repulsion energy : 1124.842995138595 Hartree


                     .---------------------------------------.
                     | Starting in Integral Section (HERMIT) |
                     `---------------------------------------'



 ***************************************************************************************
 ****************** Output from **INTEGRALS input processing (HERMIT) ******************
 ***************************************************************************************


 - Using defaults, no **INTEGRALS input found

 Default print level:        1

 Calculation of one-electron Hamiltonian integrals.

 Center of mass  (bohr):      0.084675424180     -0.271853977243      0.000000000000
 Operator center (bohr):      0.000000000000      0.000000000000      0.000000000000
 Gauge origin    (bohr):      0.000000000000      0.000000000000      0.000000000000
 Dipole origin   (bohr):      0.000000000000      0.000000000000      0.000000000000


     ************************************************************************
     ************************** Output from HERINT **************************
     ************************************************************************



                      Nuclear contribution to dipole moments
                      --------------------------------------

                 au               Debye          C m (/(10**-30)

      x      0.00000567         0.00001441         0.00004807
      y     -0.00000199        -0.00000506        -0.00001687
      z      0.00000000         0.00000000         0.00000000


  Time used in ONEDRV     is       1.65 seconds
  Time used in HUCKEL     is       0.41 seconds
  Time used in OVERLAP    is       0.21 seconds
  Time used in POPOVLP    is       0.41 seconds
  Time used in R2         is       0.26 seconds
  Time used in R4         is       0.31 seconds
  Time used in DIPLEN     is       0.28 seconds
  Time used in QUADRUP    is       0.54 seconds
  Time used in KINENE     is       0.39 seconds
  Time used in GABGEN     is       1.58 seconds
  Total CPU  time used in HERMIT:   6.05 seconds
  Total wall time used in HERMIT:   6.12 seconds


                        .----------------------------------.
                        | End of Integral Section (HERMIT) |
                        `----------------------------------'



                   .--------------------------------------------.
                   | Starting in Wave Function Section (SIRIUS) |
                   `--------------------------------------------'



@ Primary orbitals are deleted during canonical orthonormalization
@   because of detected numerical linear dependence or too large coefficients.
@ Eigenvalue threshold for num. lin. dep. =  1.00D-06

@  56 MO components are deleted in symmetry    1
 Overlap eigenvalues of the deleted orbitals:
  9.58D-07  9.25D-07  8.17D-07  7.65D-07  7.16D-07
  6.94D-07  6.59D-07  5.65D-07  4.67D-07  4.31D-07
  4.19D-07  3.61D-07  3.39D-07  3.20D-07  3.06D-07
  2.60D-07  2.34D-07  2.24D-07  1.89D-07  1.79D-07
  1.64D-07  1.46D-07  1.38D-07  1.33D-07  1.16D-07
  9.85D-08  9.01D-08  7.80D-08  6.62D-08  5.30D-08
  4.39D-08  3.97D-08  3.05D-08  2.82D-08  2.55D-08
  2.34D-08  2.24D-08  1.88D-08  1.58D-08  1.43D-08
  1.20D-08  1.16D-08  9.06D-09  7.67D-09  7.19D-09
  6.06D-09  5.47D-09  5.03D-09  4.19D-09  3.43D-09
  3.05D-09  2.59D-09  2.15D-09  1.83D-09  1.12D-09
  1.01D-09

 Max MO coeff. of last deleted MO & limit:  3.03D+02  1.00D+03

WARNING: Orbitals have been deleted because of numerical
   linear dependence although not requested in input.

 *** Output from Huckel module :

     Using EWMO model:          T
     Using EHT  model:          F
     Number of Huckel orbitals each symmetry:  118

 EWMO - Energy Weighted Maximum Overlap - is a Huckel type method,
        which normally is better than Extended Huckel Theory.
 Reference: Linderberg and Ohrn, Propagators in Quantum Chemistry (Wiley, 1973)

 Huckel EWMO eigenvalues for symmetry :  1
          -20.684752     -20.683494     -15.677079     -15.674967     -11.359307
          -11.359266     -11.358906     -11.358593     -11.357325     -11.355507
          -11.353426     -11.351440     -11.348398     -11.347250     -11.346283
          -11.345667     -11.345449     -11.345400     -11.345246     -11.345227
           -1.964065      -1.791926      -1.782678      -1.755573      -1.701620
           -1.617914      -1.510222      -1.444708      -1.381225      -1.253330
           -1.201590      -1.154517      -1.127543      -1.083590      -1.015880
           -0.988337      -0.927502      -0.887204      -0.852017      -0.846774
           -0.822695      -0.776281      -0.748511      -0.742719      -0.741154
           -0.691295      -0.685733      -0.664159      -0.634185      -0.633128
           -0.606804      -0.586000      -0.583835      -0.570952      -0.552233
           -0.539569      -0.520624      -0.513914      -0.510557      -0.496194
           -0.493338      -0.486689      -0.484633      -0.477852      -0.476338
           -0.474917      -0.453982      -0.434481      -0.404414      -0.395254
           -0.368300      -0.363568      -0.335252      -0.295149      -0.266773
           -0.243802      -0.229156      -0.226082      -0.213043      -0.203946
           -0.200991      -0.198050      -0.194756      -0.190554      -0.166609
           -0.142744      -0.138877      -0.133593      -0.131413      -0.131078
           -0.129945      -0.129497      -0.129429      -0.128444      -0.127646
           -0.127087      -0.126593      -0.126145      -0.125008      -0.124537
           -0.123965      -0.123214      -0.111649      -0.109435      -0.105607
           -0.102379      -0.098860      -0.095905      -0.092761      -0.091358
           -0.088590      -0.087964      -0.086082      -0.085619      -0.084136
           -0.082272      -0.080515      -0.079387

 **********************************************************************
 *SIRIUS* a direct, restricted step, second order MCSCF program       *
 **********************************************************************

 
     Date and time (Linux)  : Thu May 29 16:04:22 2025
     Host name              : xm009                                   

 Title lines from ".mol" input file:
     blah                                                                    
     blah                                                                    

 Print level on unit LUPRI =   2 is   0
 Print level on unit LUW4  =   2 is   5

@    Restricted, closed shell Hartree-Fock calculation.

@    Time-dependent Hartree-Fock calculation (random phase approximation).
 Fock matrices are calculated directly and in parallel without use of integrals on disk.

 Initial molecular orbitals are obtained according to
 ".MOSTART EWMO  " input option

     Wave function specification
     ============================
@    Wave function type        --- HF ---
@    Number of closed shell electrons         144
@    Number of electrons in active shells       0
@    Total charge of the molecule               0

@    Spin multiplicity and 2 M_S                1         0
@    Total number of symmetries                 1 (point group: C1 )
@    Reference state symmetry                   1 (irrep name : A  )

     Orbital specifications
     ======================
@    Abelian symmetry species          All |    1
@                                          |  A  
                                       --- |  ---
@    Occupied SCF orbitals              72 |   72
@    Secondary orbitals                746 |  746
@    Total number of orbitals          818 |  818
@    Number of basis functions         874 |  874

     Optimization information
     ========================
@    Number of configurations                 1
@    Number of orbital rotations          53712
     ------------------------------------------
@    Total number of variables            53713

     Maximum number of Fock   iterations      0
     Maximum number of DIIS   iterations     60
     Maximum number of QC-SCF iterations     60
     Threshold for SCF convergence     1.00D-05

    INFORMATION: Switched to "new" integral transformation (from 1988 ;-) )
    because more than 255 basis functions.


 ***********************************************
 ***** DIIS acceleration of SCF iterations *****
 ***********************************************

 C1-DIIS algorithm; max error vectors =    8

 Iter      Total energy        Error norm    Delta(E)  DIIS dim.
 -----------------------------------------------------------------------------
   1  Screening settings (-IFTHRS, JTDIIS, DIFDEN, times)   -9    1    T  9.65D+00  9.72D+00
@  1    -871.550442791        6.79261D+00   -8.72D+02    1
      Virial theorem: -V/T =      2.010560
@    MULPOP   C_a     0.89; C_b     0.30; C_c     0.50; C_d     0.57; C_e     0.53; C_f     0.52; C_g     0.34; C_h     0.45; C_i     0.38; C_j     0.47; 
@             C_k     0.46; C_l     0.73; C_m     0.33; C_n     0.77; C_o     0.06; C_p     0.96; N_a    -0.28; N_b     0.87; O_a    -1.16; O_b    -1.23; 
@             H_a    -0.30; H_b    -0.37; H_c    -0.34; H_d    -0.46; H_e    -0.41; H_f    -0.41; H_g    -0.43; H_h    -0.44; H_i    -0.47; H_j    -0.42; 
@    MULPOP    dipole moment & components:     25.4700;       -8.2802     24.0865      0.0000
   1  Level shift: doubly occupied orbital energies shifted by -2.00D-01
 -----------------------------------------------------------------------------
   2  Screening settings (-IFTHRS, JTDIIS, DIFDEN, times)   -9    2    T  5.93D+00  5.96D+00
@  2    -874.378873434        2.78014D+00   -2.83D+00    2
      Virial theorem: -V/T =      2.001485
@    MULPOP   C_a     0.24; C_b     0.09; C_c     0.84; C_d     0.62; C_e     0.95; C_f     0.70; C_g     1.03; C_h     0.85; C_i     0.62; C_j     0.62; 
@             C_k     0.94; C_l     1.25; C_m     0.59; C_n     0.70; C_o     0.94; C_p    -0.45; N_a     0.30; N_b     0.68; O_a    -0.46; O_b    -0.70; 
@             H_a    -0.55; H_b    -0.63; H_c    -0.54; H_d    -0.63; H_e    -0.69; H_f    -0.56; H_g    -0.64; H_h    -0.67; H_i    -0.63; H_j    -0.60; 
@    MULPOP    dipole moment & components:      8.3580;       -4.9259      6.7522      0.0000
   2  Level shift: doubly occupied orbital energies shifted by -1.00D-01
 -----------------------------------------------------------------------------
   3  Screening settings (-IFTHRS, JTDIIS, DIFDEN, times)   -9    3    T  5.90D+00  5.93D+00
@  3    -874.800867748        8.56142D-01   -4.22D-01    3
      Virial theorem: -V/T =      2.001153
@    MULPOP   C_a     0.60; C_b    -0.06; C_c     0.76; C_d     0.49; C_e     0.94; C_f     0.68; C_g     1.10; C_h     0.81; C_i     0.62; C_j     0.59; 
@             C_k     0.95; C_l     1.22; C_m     0.43; C_n     0.53; C_o     0.84; C_p    -0.39; N_a     0.21; N_b     0.73; O_a    -0.73; O_b    -0.82; 
@             H_a    -0.47; H_b    -0.62; H_c    -0.46; H_d    -0.58; H_e    -0.65; H_f    -0.49; H_g    -0.58; H_h    -0.62; H_i    -0.57; H_j    -0.56; 
@    MULPOP    dipole moment & components:      7.6016;       -5.2395      5.5074      0.0000
   3  Level shift: doubly occupied orbital energies shifted by -5.00D-02
 -----------------------------------------------------------------------------
   4  Screening settings (-IFTHRS, JTDIIS, DIFDEN, times)   -9    4    T  5.87D+00  5.90D+00
@  4    -874.854436901        2.66474D-01   -5.36D-02    4
      Virial theorem: -V/T =      2.002724
@    MULPOP   C_a     0.52; C_b    -0.06; C_c     0.73; C_d     0.46; C_e     0.94; C_f     0.66; C_g     1.11; C_h     0.79; C_i     0.61; C_j     0.56; 
@             C_k     0.93; C_l     1.17; C_m     0.39; C_n     0.43; C_o     0.85; C_p    -0.38; N_a     0.22; N_b     0.52; O_a    -0.60; O_b    -0.77; 
@             H_a    -0.42; H_b    -0.59; H_c    -0.42; H_d    -0.55; H_e    -0.64; H_f    -0.46; H_g    -0.54; H_h    -0.58; H_i    -0.54; H_j    -0.54; 
@    MULPOP    dipole moment & components:      7.3286;       -5.2986      5.0629      0.0000
   4  Level shift: doubly occupied orbital energies shifted by -2.50D-02
 -----------------------------------------------------------------------------
   5  Screening settings (-IFTHRS, JTDIIS, DIFDEN, times)  -13    5    F  6.14D+00  6.17D+00
@  5    -874.865276715        1.10030D-01   -1.08D-02    5
      Virial theorem: -V/T =      2.002212
@    MULPOP   C_a     0.57; C_b    -0.13; C_c     0.74; C_d     0.41; C_e     0.96; C_f     0.64; C_g     1.10; C_h     0.76; C_i     0.60; C_j     0.54; 
@             C_k     0.93; C_l     1.15; C_m     0.39; C_n     0.42; C_o     0.86; C_p    -0.43; N_a     0.22; N_b     0.52; O_a    -0.63; O_b    -0.75; 
@             H_a    -0.40; H_b    -0.58; H_c    -0.41; H_d    -0.54; H_e    -0.63; H_f    -0.45; H_g    -0.52; H_h    -0.57; H_i    -0.53; H_j    -0.53; 
@    MULPOP    dipole moment & components:      6.6104;       -5.2236      4.0511      0.0000
   5  Level shift: doubly occupied orbital energies shifted by -1.25D-02
 -----------------------------------------------------------------------------
   6  Screening settings (-IFTHRS, JTDIIS, DIFDEN, times)  -13    6    T  6.09D+00  6.13D+00
@  6    -874.868207845        5.65069D-02   -2.93D-03    6
      Virial theorem: -V/T =      2.002071
@    MULPOP   C_a     0.58; C_b    -0.13; C_c     0.81; C_d     0.36; C_e     0.96; C_f     0.60; C_g     1.11; C_h     0.72; C_i     0.61; C_j     0.53; 
@             C_k     0.90; C_l     1.15; C_m     0.38; C_n     0.42; C_o     0.86; C_p    -0.40; N_a     0.19; N_b     0.51; O_a    -0.61; O_b    -0.75; 
@             H_a    -0.40; H_b    -0.58; H_c    -0.42; H_d    -0.53; H_e    -0.62; H_f    -0.44; H_g    -0.52; H_h    -0.56; H_i    -0.52; H_j    -0.52; 
@    MULPOP    dipole moment & components:      6.4152;       -5.2385      3.7031      0.0000
   6  Level shift: doubly occupied orbital energies shifted by -1.25D-02
 -----------------------------------------------------------------------------
   7  Screening settings (-IFTHRS, JTDIIS, DIFDEN, times)  -13    7    T  6.07D+00  6.11D+00
@  7    -874.869166805        2.61163D-02   -9.59D-04    7
      Virial theorem: -V/T =      2.002094
@    MULPOP   C_a     0.59; C_b    -0.15; C_c     0.84; C_d     0.34; C_e     0.97; C_f     0.59; C_g     1.11; C_h     0.71; C_i     0.61; C_j     0.53; 
@             C_k     0.88; C_l     1.15; C_m     0.38; C_n     0.42; C_o     0.86; C_p    -0.38; N_a     0.19; N_b     0.50; O_a    -0.62; O_b    -0.74; 
@             H_a    -0.40; H_b    -0.58; H_c    -0.42; H_d    -0.53; H_e    -0.62; H_f    -0.44; H_g    -0.52; H_h    -0.56; H_i    -0.51; H_j    -0.52; 
@    MULPOP    dipole moment & components:      6.2528;       -5.1829      3.4979      0.0000
 -----------------------------------------------------------------------------
   8  Screening settings (-IFTHRS, JTDIIS, DIFDEN, times)  -13    8    T  6.08D+00  6.11D+00
@  8    -874.869366676        1.12785D-02   -2.00D-04    8
      Virial theorem: -V/T =      2.002094
@    MULPOP   C_a     0.60; C_b    -0.16; C_c     0.84; C_d     0.34; C_e     0.98; C_f     0.59; C_g     1.11; C_h     0.71; C_i     0.61; C_j     0.54; 
@             C_k     0.88; C_l     1.15; C_m     0.38; C_n     0.43; C_o     0.86; C_p    -0.38; N_a     0.19; N_b     0.50; O_a    -0.61; O_b    -0.74; 
@             H_a    -0.40; H_b    -0.57; H_c    -0.42; H_d    -0.53; H_e    -0.62; H_f    -0.44; H_g    -0.52; H_h    -0.56; H_i    -0.52; H_j    -0.52; 
@    MULPOP    dipole moment & components:      6.1187;       -5.1511      3.3021      0.0000
 -----------------------------------------------------------------------------
   9  Screening settings (-IFTHRS, JTDIIS, DIFDEN, times)  -13    9    T  6.08D+00  6.12D+00
@  9    -874.869398580        4.48573D-03   -3.19D-05    8
      Virial theorem: -V/T =      2.002085
@    MULPOP   C_a     0.60; C_b    -0.16; C_c     0.84; C_d     0.34; C_e     0.98; C_f     0.59; C_g     1.11; C_h     0.71; C_i     0.61; C_j     0.54; 
@             C_k     0.88; C_l     1.15; C_m     0.37; C_n     0.43; C_o     0.85; C_p    -0.38; N_a     0.19; N_b     0.50; O_a    -0.61; O_b    -0.74; 
@             H_a    -0.40; H_b    -0.57; H_c    -0.42; H_d    -0.53; H_e    -0.62; H_f    -0.44; H_g    -0.52; H_h    -0.56; H_i    -0.52; H_j    -0.52; 
@    MULPOP    dipole moment & components:      6.0414;       -5.1065      3.2284      0.0000
 -----------------------------------------------------------------------------
  10  Screening settings (-IFTHRS, JTDIIS, DIFDEN, times)  -13   10    T  6.07D+00  6.10D+00
@ 10    -874.869406005        2.59241D-03   -7.42D-06    8
      Virial theorem: -V/T =      2.002085
@    MULPOP   C_a     0.60; C_b    -0.16; C_c     0.84; C_d     0.34; C_e     0.98; C_f     0.59; C_g     1.11; C_h     0.72; C_i     0.61; C_j     0.54; 
@             C_k     0.88; C_l     1.16; C_m     0.37; C_n     0.43; C_o     0.85; C_p    -0.38; N_a     0.19; N_b     0.50; O_a    -0.61; O_b    -0.74; 
@             H_a    -0.40; H_b    -0.57; H_c    -0.42; H_d    -0.53; H_e    -0.62; H_f    -0.44; H_g    -0.52; H_h    -0.56; H_i    -0.52; H_j    -0.52; 
@    MULPOP    dipole moment & components:      5.9977;       -5.0793      3.1896      0.0000
 -----------------------------------------------------------------------------
  11  Screening settings (-IFTHRS, JTDIIS, DIFDEN, times)  -13   11    T  5.97D+00  6.01D+00
@ 11    -874.869409160        1.46775D-03   -3.15D-06    8
      Virial theorem: -V/T =      2.002086
@    MULPOP   C_a     0.60; C_b    -0.16; C_c     0.84; C_d     0.34; C_e     0.98; C_f     0.59; C_g     1.11; C_h     0.72; C_i     0.61; C_j     0.54; 
@             C_k     0.88; C_l     1.16; C_m     0.37; C_n     0.43; C_o     0.85; C_p    -0.38; N_a     0.19; N_b     0.50; O_a    -0.61; O_b    -0.74; 
@             H_a    -0.40; H_b    -0.57; H_c    -0.42; H_d    -0.53; H_e    -0.62; H_f    -0.44; H_g    -0.52; H_h    -0.56; H_i    -0.52; H_j    -0.52; 
@    MULPOP    dipole moment & components:      5.9601;       -5.0545      3.1584      0.0000
 -----------------------------------------------------------------------------
  12  Screening settings (-IFTHRS, JTDIIS, DIFDEN, times)  -13   12    T  5.97D+00  6.00D+00
@ 12    -874.869410182        4.81767D-04   -1.02D-06    8
      Virial theorem: -V/T =      2.002085
@    MULPOP   C_a     0.60; C_b    -0.15; C_c     0.84; C_d     0.34; C_e     0.98; C_f     0.59; C_g     1.11; C_h     0.72; C_i     0.61; C_j     0.54; 
@             C_k     0.88; C_l     1.16; C_m     0.37; C_n     0.43; C_o     0.85; C_p    -0.38; N_a     0.19; N_b     0.50; O_a    -0.61; O_b    -0.74; 
@             H_a    -0.40; H_b    -0.57; H_c    -0.42; H_d    -0.53; H_e    -0.62; H_f    -0.44; H_g    -0.52; H_h    -0.56; H_i    -0.52; H_j    -0.52; 
@    MULPOP    dipole moment & components:      5.9326;       -5.0361      3.1359      0.0000
 -----------------------------------------------------------------------------
  13  Screening settings (-IFTHRS, JTDIIS, DIFDEN, times)  -13   13    T  5.97D+00  6.00D+00
@ 13    -874.869410288        2.02868D-04   -1.06D-07    8
      Virial theorem: -V/T =      2.002085
@    MULPOP   C_a     0.60; C_b    -0.15; C_c     0.84; C_d     0.34; C_e     0.98; C_f     0.59; C_g     1.11; C_h     0.72; C_i     0.61; C_j     0.55; 
@             C_k     0.88; C_l     1.16; C_m     0.37; C_n     0.43; C_o     0.85; C_p    -0.38; N_a     0.19; N_b     0.50; O_a    -0.61; O_b    -0.74; 
@             H_a    -0.40; H_b    -0.57; H_c    -0.42; H_d    -0.53; H_e    -0.62; H_f    -0.44; H_g    -0.52; H_h    -0.56; H_i    -0.52; H_j    -0.52; 
@    MULPOP    dipole moment & components:      5.9234;       -5.0300      3.1283      0.0000
 -----------------------------------------------------------------------------
  14  Screening settings (-IFTHRS, JTDIIS, DIFDEN, times)  -13   14    T  5.96D+00  6.00D+00
@ 14    -874.869410297        8.91123D-05   -8.49D-09    8
      Virial theorem: -V/T =      2.002085
@    MULPOP   C_a     0.60; C_b    -0.15; C_c     0.84; C_d     0.34; C_e     0.98; C_f     0.59; C_g     1.11; C_h     0.72; C_i     0.61; C_j     0.55; 
@             C_k     0.88; C_l     1.16; C_m     0.37; C_n     0.43; C_o     0.85; C_p    -0.38; N_a     0.19; N_b     0.50; O_a    -0.61; O_b    -0.74; 
@             H_a    -0.40; H_b    -0.57; H_c    -0.42; H_d    -0.53; H_e    -0.62; H_f    -0.44; H_g    -0.52; H_h    -0.56; H_i    -0.52; H_j    -0.52; 
@    MULPOP    dipole moment & components:      5.9219;       -5.0290      3.1270      0.0000
 -----------------------------------------------------------------------------
  15  Screening settings (-IFTHRS, JTDIIS, DIFDEN, times)  -13   15    T  5.87D+00  5.90D+00
@ 15    -874.869410298        4.12243D-05   -1.72D-09    8
      Virial theorem: -V/T =      2.002085
@    MULPOP   C_a     0.60; C_b    -0.15; C_c     0.84; C_d     0.34; C_e     0.98; C_f     0.59; C_g     1.11; C_h     0.72; C_i     0.61; C_j     0.55; 
@             C_k     0.88; C_l     1.16; C_m     0.37; C_n     0.43; C_o     0.85; C_p    -0.38; N_a     0.19; N_b     0.50; O_a    -0.61; O_b    -0.74; 
@             H_a    -0.40; H_b    -0.57; H_c    -0.42; H_d    -0.53; H_e    -0.62; H_f    -0.44; H_g    -0.52; H_h    -0.56; H_i    -0.52; H_j    -0.52; 
@    MULPOP    dipole moment & components:      5.9211;       -5.0284      3.1264      0.0000
 -----------------------------------------------------------------------------
  16  Screening settings (-IFTHRS, JTDIIS, DIFDEN, times)  -13   16    T  5.87D+00  5.91D+00
@ 16    -874.869410299        1.72610D-05   -2.80D-10    8
      Virial theorem: -V/T =      2.002085
@    MULPOP   C_a     0.60; C_b    -0.15; C_c     0.84; C_d     0.34; C_e     0.98; C_f     0.59; C_g     1.11; C_h     0.72; C_i     0.61; C_j     0.55; 
@             C_k     0.88; C_l     1.16; C_m     0.37; C_n     0.43; C_o     0.85; C_p    -0.38; N_a     0.19; N_b     0.50; O_a    -0.61; O_b    -0.74; 
@             H_a    -0.40; H_b    -0.57; H_c    -0.42; H_d    -0.53; H_e    -0.62; H_f    -0.44; H_g    -0.52; H_h    -0.56; H_i    -0.52; H_j    -0.52; 
@    MULPOP    dipole moment & components:      5.9210;       -5.0283      3.1263      0.0000
 -----------------------------------------------------------------------------
  17  Screening settings (-IFTHRS, JTDIIS, DIFDEN, times)  -13   17    T  5.84D+00  5.87D+00
@ 17    -874.869410299        1.09617D-05   -2.51D-10    8
      Virial theorem: -V/T =      2.002085
@    MULPOP   C_a     0.60; C_b    -0.15; C_c     0.84; C_d     0.34; C_e     0.98; C_f     0.59; C_g     1.11; C_h     0.72; C_i     0.61; C_j     0.55; 
@             C_k     0.88; C_l     1.16; C_m     0.37; C_n     0.43; C_o     0.85; C_p    -0.38; N_a     0.19; N_b     0.50; O_a    -0.61; O_b    -0.74; 
@             H_a    -0.40; H_b    -0.57; H_c    -0.42; H_d    -0.53; H_e    -0.62; H_f    -0.44; H_g    -0.52; H_h    -0.56; H_i    -0.52; H_j    -0.52; 
@    MULPOP    dipole moment & components:      5.9209;       -5.0283      3.1263      0.0000
 -----------------------------------------------------------------------------
  18  Screening settings (-IFTHRS, JTDIIS, DIFDEN, times)  -13   18    T  5.83D+00  5.86D+00
@ 18    -874.869410299        5.09646D-06   -1.57D-10    8

@ *** DIIS converged in  18 iterations !
@     Converged SCF energy, gradient:   -874.869410299129    5.10D-06
    - total time used in SIRFCK :              0.00 seconds


 *** SCF orbital energy analysis ***

 Only the 20 lowest virtual orbital energies printed in each symmetry.

 Number of electrons :  144
 Orbital occupations :   72

 Sym       Hartree-Fock orbital energies

1 A     -20.59538519   -20.59259931   -15.84325125   -15.60388336   -11.31327319
        -11.29306482   -11.29129463   -11.28202357   -11.27380987   -11.26772334
        -11.26340759   -11.26304966   -11.26197994   -11.26007549   -11.25681681
        -11.25298926   -11.24871348   -11.24385338   -11.23860492   -11.23599446
         -1.58139373    -1.37896528    -1.24366834    -1.14331466    -1.12679038
         -1.11350493    -1.09555822    -1.07169913    -1.04254144    -1.00864237
         -0.97062321    -0.93803042    -0.88111942    -0.84093741    -0.80811797
         -0.78822439    -0.78180536    -0.77301057    -0.76276986    -0.75878892
         -0.73384284    -0.72195199    -0.71135052    -0.69418933    -0.68556271
         -0.66847400    -0.65845931    -0.64233573    -0.62428888    -0.60787968
         -0.59914746    -0.57504918    -0.56950846    -0.55579473    -0.54035578
         -0.53935497    -0.52830541    -0.52755328    -0.51901400    -0.51151477
         -0.50296456    -0.49558942    -0.47874593    -0.47845702    -0.47537161
         -0.45566098    -0.43736599    -0.42445628    -0.38540693    -0.33927564
         -0.28809796    -0.23696834    -0.00024379     0.00450038     0.00715287
          0.00922242     0.01091292     0.01120588     0.01277164     0.01454225
          0.01655483     0.01976942     0.02027369     0.02100095     0.02175066
          0.02372101     0.02476162     0.02516465     0.02638494     0.02699786
          0.02936643     0.02960998

    E(LUMO) :    -0.00024379 au (symmetry 1)
  - E(HOMO) :    -0.23696834 au (symmetry 1)
  ------------------------------------------
    gap     :     0.23672455 au

 --- Writing SIRIFC interface file

 CPU and wall time for SCF :     195.975     197.148


                       .-----------------------------------.
                       | --- Final results from SIRIUS --- |
                       `-----------------------------------'


@    Spin multiplicity:           1
@    Spatial symmetry:            1 ( irrep  A   in C1  )
@    Total charge of molecule:    0

@    Final HF energy:            -874.869410299129                 
@    Nuclear repulsion:          1124.842995138595
@    Electronic energy:         -1999.712405437724

@    Final gradient norm:           0.000005096458

 
     Date and time (Linux)  : Thu May 29 16:07:40 2025
     Host name              : xm009                                   

File label for MO orbitals:  29May25   FOCKDIIS

 (Only coefficients > 0.0100 are printed.)

 Molecular orbitals for symmetry species 1  (A  )
 ------------------------------------------------

    Orbital        63       64       65       66       67       68       69
   2 C_a :1s     0.0998   0.0000  -0.0077  -0.0000  -0.0000  -0.0000  -0.0000
   3 C_a :1s     0.0303   0.0000  -0.0747  -0.0000   0.0000   0.0000   0.0000
   4 C_a :1s    -0.2247  -0.0000   0.1179   0.0000  -0.0000   0.0000   0.0000
   5 C_a :1s    -0.1781  -0.0000   0.0568   0.0000   0.0000   0.0000   0.0000
   6 C_a :2px    0.2141  -0.0000  -0.1395   0.0000  -0.0000  -0.0000  -0.0000
   7 C_a :2py   -0.2429   0.0000  -0.0122  -0.0000  -0.0000  -0.0000  -0.0000
   8 C_a :2pz   -0.0000   0.1657   0.0000   0.2154  -0.0098   0.2610  -0.2896
   9 C_a :2px   -0.0558   0.0000   0.0914  -0.0000   0.0000   0.0000   0.0000
  10 C_a :2py    0.1709   0.0000   0.0508  -0.0000  -0.0000  -0.0000   0.0000
  11 C_a :2pz    0.0000   0.0044  -0.0000   0.0071   0.0084   0.0089  -0.0101
  12 C_a :2px    0.4546  -0.0000  -0.3884   0.0000   0.0000  -0.0000  -0.0000
  13 C_a :2py    0.0105  -0.0000   0.3419   0.0000   0.0000  -0.0000  -0.0000
  14 C_a :2pz    0.0000   0.4388   0.0000   0.0730   0.1295   0.3522  -0.0700
  15 C_a :2px   -0.0666  -0.0000   0.0294   0.0000   0.0000   0.0000  -0.0000
  16 C_a :2py    0.1138   0.0000  -0.0715  -0.0000   0.0000  -0.0000  -0.0000
  17 C_a :2pz   -0.0000   0.0149  -0.0000  -0.0093  -0.0315   0.0045   0.0030
  18 C_a :3d2-  -0.0228   0.0000   0.0025   0.0000  -0.0000   0.0000   0.0000
  19 C_a :3d1-  -0.0000   0.0099   0.0000   0.0117   0.0025   0.0116  -0.0100
  23 C_a :3d2-   0.0319   0.0000  -0.0270  -0.0000   0.0000   0.0000  -0.0000
  24 C_a :3d1-   0.0000   0.0102   0.0000   0.0104   0.0239   0.0106  -0.0088
  27 C_a :3d2+  -0.0533  -0.0000  -0.0103   0.0000   0.0000   0.0000  -0.0000
  28 C_a :3d2-   0.0606  -0.0000   0.0490  -0.0000   0.0000  -0.0000  -0.0000
  29 C_a :3d1-   0.0000   0.1000  -0.0000   0.0165   0.0171   0.0810  -0.0161
  30 C_a :3d0   -0.0363  -0.0000   0.0682  -0.0000   0.0000  -0.0000  -0.0000
  31 C_a :3d1+   0.0000  -0.0003   0.0000  -0.0149   0.0048  -0.0085   0.0116
  32 C_a :3d2+   0.0233  -0.0000   0.0579   0.0000   0.0000   0.0000  -0.0000
  34 C_b :1s    -0.0192   0.0000  -0.0526   0.0000   0.0000   0.0000   0.0000
  35 C_b :1s    -0.2134  -0.0000  -0.0789   0.0000   0.0000   0.0000   0.0000
  36 C_b :1s    -0.1860  -0.0000   0.2125   0.0000  -0.0000  -0.0000  -0.0000
  37 C_b :1s    -0.1537  -0.0000   0.0237   0.0000   0.0000  -0.0000  -0.0000
  38 C_b :2px   -0.0157  -0.0000  -0.0707   0.0000  -0.0000  -0.0000   0.0000
  39 C_b :2py    0.1499  -0.0000   0.0505  -0.0000   0.0000   0.0000   0.0000
  40 C_b :2pz   -0.0000   0.2129   0.0000   0.2446  -0.0002   0.2448  -0.2078
  41 C_b :2px    0.0526  -0.0000   0.1488   0.0000  -0.0000  -0.0000  -0.0000
  42 C_b :2py    0.0626   0.0000  -0.0929  -0.0000  -0.0000   0.0000   0.0000
  43 C_b :2pz   -0.0000  -0.0163  -0.0000  -0.0154  -0.0286  -0.0077   0.0003
  44 C_b :2px   -0.3762  -0.0000   0.2471   0.0000  -0.0000   0.0000   0.0000
  45 C_b :2py    0.0928   0.0000  -0.0588  -0.0000  -0.0000   0.0000   0.0000
  46 C_b :2pz    0.0000   0.3210   0.0000   0.2674  -0.0475   0.1764   0.0831
  47 C_b :2px   -0.0021   0.0000  -0.0703  -0.0000   0.0000  -0.0000  -0.0000
  48 C_b :2py   -0.1329  -0.0000   0.0111   0.0000  -0.0000   0.0000  -0.0000
  49 C_b :2pz    0.0000   0.0460   0.0000   0.0498   0.0671   0.0367  -0.0458
  50 C_b :3d2-  -0.0123   0.0000  -0.0026  -0.0000   0.0000   0.0000  -0.0000
  51 C_b :3d1-   0.0000  -0.0017   0.0000  -0.0052   0.0001  -0.0109   0.0173
  55 C_b :3d2-  -0.0140  -0.0000   0.0336   0.0000   0.0000  -0.0000  -0.0000
  58 C_b :3d1+   0.0000   0.0024   0.0000   0.0027   0.0105   0.0032  -0.0036
  59 C_b :3d2+  -0.0387   0.0000   0.0096  -0.0000   0.0000   0.0000  -0.0000
  60 C_b :3d2-   0.2190  -0.0000  -0.2817   0.0000   0.0000   0.0000  -0.0000
  61 C_b :3d1-   0.0000   0.2660   0.0000  -0.0079   0.0325   0.1305   0.1147
  62 C_b :3d0   -0.0070   0.0000  -0.0773  -0.0000  -0.0000   0.0000   0.0000
  63 C_b :3d1+  -0.0000  -0.0521  -0.0000  -0.0165  -0.0153  -0.0307  -0.0214
  64 C_b :3d2+  -0.0267   0.0000  -0.0391  -0.0000  -0.0000   0.0000   0.0000
  66 C_c :1s     0.0359  -0.0000   0.0052   0.0000   0.0000   0.0000  -0.0000
  67 C_c :1s    -0.1320  -0.0000   0.1009   0.0000   0.0000   0.0000  -0.0000
  68 C_c :1s     0.1180   0.0000  -0.0904  -0.0000  -0.0000   0.0000   0.0000
  69 C_c :1s    -0.1380   0.0000   0.1209  -0.0000  -0.0000   0.0000   0.0000
  70 C_c :2px    0.0436   0.0000   0.0590  -0.0000   0.0000   0.0000   0.0000
  71 C_c :2py   -0.1044  -0.0000  -0.0087   0.0000  -0.0000  -0.0000   0.0000
  72 C_c :2pz   -0.0000   0.2445  -0.0000   0.1991  -0.0116   0.0773   0.0918
  73 C_c :2px   -0.0445  -0.0000   0.0855   0.0000   0.0000  -0.0000  -0.0000
  74 C_c :2py   -0.1224   0.0000  -0.1506  -0.0000   0.0000   0.0000   0.0000
  75 C_c :2pz    0.0000  -0.0079   0.0000  -0.0098   0.0120  -0.0111   0.0099
  76 C_c :2px   -0.1842   0.0000  -0.1777  -0.0000   0.0000  -0.0000  -0.0000
  77 C_c :2py   -0.0110  -0.0000  -0.1350   0.0000  -0.0000   0.0000   0.0000
  78 C_c :2pz   -0.0000   0.4299  -0.0000   0.0689  -0.0314  -0.0151   0.2729
  79 C_c :2px    0.0352   0.0000  -0.0290   0.0000  -0.0000  -0.0000   0.0000
  80 C_c :2py    0.0147   0.0000  -0.0218  -0.0000   0.0000   0.0000   0.0000
  81 C_c :2pz    0.0000  -0.0087   0.0000   0.0243   0.0094   0.0181  -0.0143
  83 C_c :3d1-  -0.0000   0.0043  -0.0000  -0.0015  -0.0008  -0.0095   0.0159
  87 C_c :3d2-  -0.0174   0.0000  -0.0165  -0.0000  -0.0000   0.0000   0.0000
  91 C_c :3d2+  -0.0100  -0.0000   0.0458  -0.0000   0.0000   0.0000  -0.0000
  92 C_c :3d2-  -0.1511  -0.0000   0.0154   0.0000  -0.0000  -0.0000   0.0000
  93 C_c :3d1-   0.0000   0.4244   0.0000   0.2225   0.0569   0.2800  -0.0178
  94 C_c :3d0   -0.0441  -0.0000   0.0746   0.0000  -0.0000  -0.0000  -0.0000
  95 C_c :3d1+  -0.0000  -0.1608  -0.0000  -0.1033  -0.0202  -0.1216   0.0265
  96 C_c :3d2+  -0.0408   0.0000   0.0615  -0.0000   0.0000   0.0000  -0.0000
  98 C_d :1s    -0.0246   0.0000   0.0056  -0.0000  -0.0000  -0.0000  -0.0000
  99 C_d :1s     0.0658  -0.0000   0.1314  -0.0000  -0.0000  -0.0000  -0.0000
 100 C_d :1s     0.0193   0.0000   0.0102  -0.0000   0.0000   0.0000   0.0000
 101 C_d :1s     0.1910   0.0000   0.0352  -0.0000   0.0000  -0.0000   0.0000
 102 C_d :2px   -0.0160   0.0000  -0.0229  -0.0000   0.0000   0.0000  -0.0000
 103 C_d :2py    0.0819   0.0000  -0.0042   0.0000  -0.0000  -0.0000   0.0000
 104 C_d :2pz   -0.0000   0.2085   0.0000   0.0938  -0.0141  -0.0782   0.2212
 105 C_d :2px    0.0118  -0.0000  -0.0439   0.0000   0.0000   0.0000  -0.0000
 106 C_d :2py   -0.1495   0.0000  -0.0741  -0.0000   0.0000   0.0000   0.0000
 107 C_d :2pz    0.0000  -0.0062  -0.0000   0.0015   0.0003   0.0101  -0.0057
 108 C_d :2px    0.1216   0.0000   0.0795  -0.0000   0.0000   0.0000   0.0000
 109 C_d :2py    0.0602   0.0000   0.0866  -0.0000   0.0000  -0.0000  -0.0000
 110 C_d :2pz    0.0000   0.6026   0.0000   0.0954  -0.0577  -0.0310   0.1834
 111 C_d :2px    0.0239  -0.0000   0.0294  -0.0000  -0.0000   0.0000  -0.0000
 112 C_d :2py    0.0233   0.0000   0.0329  -0.0000   0.0000   0.0000   0.0000
 113 C_d :2pz   -0.0000  -0.0443  -0.0000  -0.0649  -0.0807  -0.0497   0.0797
 115 C_d :3d1-   0.0000  -0.0085   0.0000  -0.0122   0.0000  -0.0110   0.0015
 119 C_d :3d2-   0.0453  -0.0000   0.0351   0.0000  -0.0000  -0.0000  -0.0000
 123 C_d :3d2+  -0.0262  -0.0000   0.0322   0.0000  -0.0000   0.0000   0.0000
 124 C_d :3d2-   0.0302  -0.0000  -0.1397   0.0000   0.0000   0.0000  -0.0000
 125 C_d :3d1-   0.0000   0.6399   0.0000   0.0633  -0.0408   0.0906   0.3710
 126 C_d :3d0    0.0531   0.0000  -0.0020  -0.0000  -0.0000   0.0000  -0.0000
 127 C_d :3d1+  -0.0000  -0.1860  -0.0000  -0.0172   0.0085  -0.0516  -0.0795
 128 C_d :3d2+  -0.0319   0.0000   0.1148   0.0000  -0.0000  -0.0000   0.0000
 130 C_e :1s     0.0160   0.0000   0.0065  -0.0000   0.0000   0.0000   0.0000
 131 C_e :1s     0.0775  -0.0000   0.0609   0.0000  -0.0000  -0.0000  -0.0000
 132 C_e :1s     0.0120   0.0000   0.0632  -0.0000  -0.0000  -0.0000  -0.0000
 133 C_e :1s    -0.0150   0.0000   0.1343  -0.0000  -0.0000   0.0000  -0.0000
 134 C_e :2px    0.0307   0.0000   0.0118   0.0000  -0.0000  -0.0000   0.0000
 135 C_e :2py   -0.0492   0.0000  -0.0126  -0.0000   0.0000   0.0000  -0.0000
 136 C_e :2pz   -0.0000   0.1105   0.0000  -0.1012  -0.0139  -0.2614   0.2127
 137 C_e :2px    0.0432  -0.0000   0.0345   0.0000  -0.0000   0.0000  -0.0000
 138 C_e :2py   -0.0666   0.0000   0.0174  -0.0000  -0.0000   0.0000   0.0000
 140 C_e :2px   -0.1346   0.0000   0.1722   0.0000  -0.0000   0.0000   0.0000
 141 C_e :2py    0.0251   0.0000  -0.0145  -0.0000   0.0000   0.0000  -0.0000
 142 C_e :2pz    0.0000   0.3080  -0.0000   0.0227  -0.0251  -0.2074  -0.0239
 143 C_e :2px   -0.0076  -0.0000   0.0372  -0.0000   0.0000   0.0000  -0.0000
 144 C_e :2py   -0.1001  -0.0000   0.0712   0.0000  -0.0000   0.0000  -0.0000
 145 C_e :2pz    0.0000   0.0117  -0.0000  -0.0451   0.0349  -0.0487   0.0438
 147 C_e :3d1-  -0.0000  -0.0040   0.0000  -0.0113   0.0001  -0.0098  -0.0030
 151 C_e :3d2-   0.0063   0.0000   0.0120  -0.0000  -0.0000   0.0000  -0.0000
 155 C_e :3d2+   0.0208  -0.0000   0.0289   0.0000  -0.0000  -0.0000   0.0000
 156 C_e :3d2-  -0.1011   0.0000  -0.0046  -0.0000  -0.0000   0.0000  -0.0000
 157 C_e :3d1-   0.0000   0.8928   0.0000   0.3328   0.0366   0.2791   0.0652
 158 C_e :3d0   -0.0048   0.0000  -0.0337  -0.0000   0.0000   0.0000   0.0000
 159 C_e :3d1+  -0.0000  -0.2527   0.0000  -0.0579  -0.0079  -0.0421  -0.0482
 163 C_f :1s     0.0686  -0.0000   0.0083   0.0000  -0.0000  -0.0000   0.0000
 164 C_f :1s     0.0094   0.0000  -0.0666   0.0000   0.0000   0.0000   0.0000
 165 C_f :1s     0.2323   0.0000  -0.0892   0.0000  -0.0000  -0.0000  -0.0000
 166 C_f :2px   -0.0130  -0.0000  -0.0006   0.0000  -0.0000  -0.0000   0.0000
 167 C_f :2py    0.0368  -0.0000   0.0054   0.0000  -0.0000  -0.0000  -0.0000
 168 C_f :2pz   -0.0000   0.0226   0.0000  -0.2016  -0.0074  -0.2523   0.0519
 169 C_f :2px   -0.0287  -0.0000  -0.0330   0.0000  -0.0000  -0.0000   0.0000
 170 C_f :2py   -0.0202   0.0000   0.0283  -0.0000  -0.0000  -0.0000   0.0000
 171 C_f :2pz    0.0000   0.0045  -0.0000   0.0106   0.0026   0.0038   0.0097
 172 C_f :2px   -0.0230   0.0000   0.0797   0.0000   0.0000  -0.0000   0.0000
 173 C_f :2py   -0.0125  -0.0000  -0.0708   0.0000   0.0000   0.0000   0.0000
 174 C_f :2pz   -0.0000   0.0553  -0.0000  -0.4817   0.0453  -0.4088  -0.0150
 175 C_f :2px    0.0265   0.0000  -0.0489   0.0000   0.0000   0.0000   0.0000
 176 C_f :2py   -0.0551   0.0000   0.0271   0.0000  -0.0000  -0.0000   0.0000
 177 C_f :2pz    0.0000   0.0094   0.0000   0.0515   0.0238   0.0429  -0.0986
 179 C_f :3d1-  -0.0000  -0.0079  -0.0000  -0.0025   0.0008   0.0103  -0.0171
 183 C_f :3d2-   0.0251   0.0000  -0.0005  -0.0000  -0.0000   0.0000  -0.0000
 184 C_f :3d1-  -0.0000  -0.0041   0.0000  -0.0042  -0.0007   0.0040  -0.0124
 187 C_f :3d2+   0.0107   0.0000   0.0035  -0.0000   0.0000   0.0000  -0.0000
 188 C_f :3d2-  -0.0430   0.0000   0.0301   0.0000  -0.0000   0.0000   0.0000
 189 C_f :3d1-   0.0000   0.9171   0.0000  -0.0057  -0.0515  -0.0944   0.3786
 190 C_f :3d0   -0.0106  -0.0000   0.0256   0.0000  -0.0000  -0.0000  -0.0000
 191 C_f :3d1+  -0.0000  -0.2242  -0.0000   0.0050   0.0093   0.0302  -0.1182
 192 C_f :3d2+   0.0435  -0.0000   0.0412  -0.0000  -0.0000  -0.0000  -0.0000
 195 C_g :1s     0.0391   0.0000  -0.0405  -0.0000   0.0000   0.0000   0.0000
 196 C_g :1s    -0.1238  -0.0000  -0.0138   0.0000   0.0000   0.0000   0.0000
 197 C_g :1s    -0.0581  -0.0000  -0.0489   0.0000   0.0000   0.0000   0.0000
 198 C_g :2px    0.0173  -0.0000   0.0012   0.0000  -0.0000   0.0000  -0.0000
 199 C_g :2py   -0.0259   0.0000  -0.0047   0.0000   0.0000  -0.0000   0.0000
 200 C_g :2pz   -0.0000  -0.1094   0.0000  -0.2736   0.0067  -0.0825  -0.2332
 201 C_g :2px    0.0162   0.0000  -0.0199   0.0000  -0.0000  -0.0000  -0.0000
 202 C_g :2py    0.0337   0.0000   0.0088  -0.0000  -0.0000   0.0000   0.0000
 203 C_g :2pz    0.0000   0.0014  -0.0000   0.0077  -0.0001   0.0109  -0.0058
 204 C_g :2px    0.2666  -0.0000  -0.0223   0.0000   0.0000   0.0000  -0.0000
 205 C_g :2py    0.0207  -0.0000   0.0873   0.0000  -0.0000  -0.0000  -0.0000
 206 C_g :2pz    0.0000  -0.0444   0.0000  -0.5974  -0.0267  -0.1655  -0.1485
 207 C_g :2px   -0.0284  -0.0000  -0.0218   0.0000  -0.0000  -0.0000   0.0000
 208 C_g :2py    0.0705   0.0000   0.0317  -0.0000   0.0000   0.0000   0.0000
 209 C_g :2pz    0.0000   0.0114  -0.0000   0.0767  -0.0398   0.0892  -0.0901
 211 C_g :3d1-   0.0000  -0.0085  -0.0000  -0.0057   0.0008   0.0098  -0.0141
 215 C_g :3d2-   0.0139   0.0000   0.0025   0.0000   0.0000   0.0000   0.0000
 220 C_g :3d2-  -0.0246   0.0000   0.0059   0.0000  -0.0000  -0.0000   0.0000
 221 C_g :3d1-   0.0000   0.9925  -0.0000  -0.0214   0.0333  -0.0206   0.0549
 223 C_g :3d1+  -0.0000  -0.2407   0.0000   0.0196  -0.0149   0.0107   0.0075
 224 C_g :3d2+   0.0512   0.0000  -0.0233  -0.0000  -0.0000  -0.0000   0.0000
 227 C_h :1s    -0.0100  -0.0000  -0.0183  -0.0000   0.0000   0.0000  -0.0000
 228 C_h :1s     0.0021  -0.0000   0.1373  -0.0000  -0.0000  -0.0000  -0.0000
 229 C_h :1s     0.0144  -0.0000  -0.1085   0.0000   0.0000  -0.0000  -0.0000
 231 C_h :2py    0.0186   0.0000   0.0038  -0.0000   0.0000   0.0000  -0.0000
 232 C_h :2pz   -0.0000  -0.1845   0.0000  -0.2420   0.0136   0.0749  -0.2656
 233 C_h :2px   -0.0085  -0.0000   0.0132  -0.0000  -0.0000  -0.0000  -0.0000
 234 C_h :2py    0.0383   0.0000  -0.0150  -0.0000  -0.0000   0.0000   0.0000
 235 C_h :2pz    0.0000   0.0122  -0.0000   0.0052  -0.0011  -0.0103   0.0012
 236 C_h :2px   -0.0136  -0.0000   0.0821  -0.0000  -0.0000  -0.0000  -0.0000
 237 C_h :2py    0.0827   0.0000  -0.0465  -0.0000  -0.0000  -0.0000  -0.0000
 238 C_h :2pz    0.0000  -0.2905   0.0000  -0.4498   0.0375   0.2712  -0.2737
 239 C_h :2px   -0.1059  -0.0000   0.0577   0.0000  -0.0000  -0.0000  -0.0000
 240 C_h :2py    0.0861   0.0000   0.0425  -0.0000   0.0000   0.0000  -0.0000
 241 C_h :2pz    0.0000   0.0236   0.0000  -0.0399   0.0382  -0.0404   0.0954
 243 C_h :3d1-   0.0000  -0.0021  -0.0000   0.0095   0.0002   0.0109   0.0093
 251 C_h :3d2+   0.0039   0.0000  -0.0105   0.0000  -0.0000  -0.0000   0.0000
 252 C_h :3d2-  -0.0036  -0.0000   0.0381   0.0000   0.0000   0.0000  -0.0000
 253 C_h :3d1-   0.0000   0.8300   0.0000  -0.4899  -0.0322  -0.1730   0.2380
 254 C_h :3d0   -0.0051   0.0000  -0.0125  -0.0000   0.0000   0.0000   0.0000
 255 C_h :3d1+  -0.0000  -0.2186  -0.0000   0.0844   0.0100   0.0375  -0.0623
 256 C_h :3d2+  -0.0093  -0.0000  -0.0628   0.0000   0.0000   0.0000   0.0000
 260 C_i :1s     0.0732   0.0000  -0.0804  -0.0000   0.0000   0.0000   0.0000
 261 C_i :1s    -0.0627   0.0000   0.0230  -0.0000   0.0000   0.0000   0.0000
 263 C_i :2py   -0.0136  -0.0000  -0.0021  -0.0000  -0.0000  -0.0000   0.0000
 264 C_i :2pz    0.0000  -0.2671  -0.0000  -0.1145   0.0168   0.2594  -0.0771
 265 C_i :2px   -0.0121  -0.0000   0.0040  -0.0000  -0.0000  -0.0000  -0.0000
 266 C_i :2py    0.0222   0.0000  -0.0249  -0.0000   0.0000   0.0000   0.0000
 267 C_i :2pz   -0.0000   0.0095   0.0000   0.0077   0.0002  -0.0012   0.0105
 268 C_i :2px   -0.0302  -0.0000   0.0086  -0.0000   0.0000  -0.0000  -0.0000
 269 C_i :2py   -0.0526  -0.0000  -0.0504  -0.0000   0.0000   0.0000   0.0000
 270 C_i :2pz   -0.0000  -0.4171  -0.0000  -0.3764   0.0540   0.3569  -0.0931
 271 C_i :2px    0.0471   0.0000  -0.0353  -0.0000   0.0000   0.0000   0.0000
 273 C_i :2pz   -0.0000  -0.0424  -0.0000  -0.1003   0.0052  -0.1242   0.1297
 275 C_i :3d1-   0.0000  -0.0080  -0.0000   0.0063   0.0002   0.0103   0.0120
 284 C_i :3d2-   0.0457  -0.0000   0.0432  -0.0000   0.0000  -0.0000  -0.0000
 285 C_i :3d1-   0.0000   0.7780  -0.0000  -0.4568   0.0440   0.1022  -0.1066
 287 C_i :3d1+  -0.0000  -0.1779   0.0000   0.1232  -0.0045  -0.0458   0.0227
 288 C_i :3d2+  -0.0524  -0.0000  -0.0109   0.0000  -0.0000  -0.0000  -0.0000
 291 C_j :1s    -0.0109  -0.0000   0.0102   0.0000  -0.0000  -0.0000  -0.0000
 292 C_j :1s    -0.0510  -0.0000  -0.0587   0.0000   0.0000   0.0000   0.0000
 293 C_j :1s    -0.0803  -0.0000  -0.0261  -0.0000   0.0000  -0.0000  -0.0000
 296 C_j :2pz    0.0000  -0.2914  -0.0000   0.0054   0.0126   0.2680   0.1058
 298 C_j :2py    0.0142   0.0000  -0.0172  -0.0000   0.0000   0.0000   0.0000
 299 C_j :2pz   -0.0000   0.0149   0.0000  -0.0065  -0.0005  -0.0059  -0.0114
 300 C_j :2px    0.0435   0.0000  -0.2594   0.0000   0.0000   0.0000   0.0000
 301 C_j :2py    0.0228  -0.0000   0.0079   0.0000  -0.0000  -0.0000  -0.0000
 302 C_j :2pz   -0.0000  -0.4687   0.0000   0.0168   0.0011   0.4338   0.1166
 303 C_j :2px    0.1227   0.0000  -0.0271  -0.0000   0.0000   0.0000  -0.0000
 304 C_j :2py   -0.0647  -0.0000  -0.0329   0.0000   0.0000  -0.0000   0.0000
 305 C_j :2pz    0.0000  -0.0288  -0.0000   0.0293  -0.0513   0.0639  -0.0738
 307 C_j :3d1-   0.0000   0.0041   0.0000   0.0099  -0.0008  -0.0086   0.0117
 309 C_j :3d1+  -0.0000   0.0108  -0.0000  -0.0027  -0.0003  -0.0071  -0.0063
 312 C_j :3d1-  -0.0000   0.0016   0.0000   0.0066  -0.0003  -0.0031   0.0103
 316 C_j :3d2-  -0.0352  -0.0000   0.0046  -0.0000  -0.0000  -0.0000  -0.0000
 317 C_j :3d1-   0.0000   0.4587   0.0000  -0.7095   0.0189   0.1980   0.1318
 319 C_j :3d1+  -0.0000  -0.1273  -0.0000   0.1760   0.0018  -0.0142  -0.0359
 320 C_j :3d2+  -0.0046   0.0000   0.0277  -0.0000   0.0000  -0.0000  -0.0000
 323 C_k :1s    -0.0039  -0.0000   0.0117  -0.0000  -0.0000  -0.0000  -0.0000
 324 C_k :1s     0.0557  -0.0000   0.0018   0.0000  -0.0000  -0.0000  -0.0000
 325 C_k :1s     0.0244  -0.0000   0.0766  -0.0000  -0.0000  -0.0000  -0.0000
 328 C_k :2pz    0.0000  -0.2953   0.0000   0.1773   0.0008   0.1298   0.2815
 331 C_k :2pz   -0.0000   0.0137  -0.0000  -0.0022  -0.0003  -0.0088  -0.0016
 332 C_k :2px   -0.0826   0.0000  -0.0034   0.0000   0.0000   0.0000  -0.0000
 333 C_k :2py   -0.0109   0.0000  -0.0353   0.0000   0.0000   0.0000   0.0000
 334 C_k :2pz   -0.0000  -0.4232  -0.0000   0.2439  -0.0130   0.3261   0.2560
 335 C_k :2px   -0.0541  -0.0000   0.0490   0.0000   0.0000  -0.0000   0.0000
 336 C_k :2py   -0.0297   0.0000   0.0125  -0.0000   0.0000  -0.0000   0.0000
 337 C_k :2pz    0.0000   0.0490   0.0000   0.0815   0.0247   0.1136  -0.1335
 339 C_k :3d1-  -0.0000  -0.0042   0.0000   0.0109  -0.0007  -0.0080   0.0074
 341 C_k :3d1+   0.0000  -0.0114  -0.0000   0.0043   0.0002   0.0065   0.0070
 348 C_k :3d2-   0.0535   0.0000  -0.0469  -0.0000   0.0000   0.0000  -0.0000
 349 C_k :3d1-   0.0000   0.3925  -0.0000  -0.5413   0.0386   0.4151   0.0129
 350 C_k :3d0   -0.0024   0.0000  -0.0113  -0.0000   0.0000   0.0000   0.0000
 351 C_k :3d1+  -0.0000  -0.0667   0.0000   0.1152  -0.0103  -0.0924  -0.0118
 352 C_k :3d2+  -0.0341   0.0000   0.0368  -0.0000  -0.0000   0.0000   0.0000
 356 C_l :1s    -0.0342   0.0000  -0.0339  -0.0000   0.0000   0.0000   0.0000
 357 C_l :1s     0.0693   0.0000  -0.0526  -0.0000  -0.0000   0.0000   0.0000
 360 C_l :2pz    0.0000  -0.2679   0.0000   0.2531  -0.0077  -0.0242   0.2151
 363 C_l :2pz   -0.0000   0.0142  -0.0000  -0.0153   0.0008   0.0107   0.0048
 364 C_l :2px    0.0231   0.0000  -0.0487   0.0000   0.0000   0.0000   0.0000
 365 C_l :2py   -0.0378   0.0000   0.0090  -0.0000   0.0000   0.0000   0.0000
 366 C_l :2pz   -0.0000  -0.3594  -0.0000   0.4481   0.0128  -0.0214   0.0876
 367 C_l :2px   -0.0936  -0.0000   0.0041   0.0000  -0.0000  -0.0000   0.0000
 368 C_l :2py    0.0329   0.0000   0.0459  -0.0000  -0.0000  -0.0000   0.0000
 369 C_l :2pz   -0.0000   0.0064   0.0000  -0.0089   0.0259  -0.0826   0.0428
 371 C_l :3d1-  -0.0000   0.0074  -0.0000   0.0000  -0.0005  -0.0127  -0.0154
 380 C_l :3d2-  -0.0472  -0.0000  -0.0781   0.0000  -0.0000   0.0000   0.0000
 381 C_l :3d1-   0.0000   0.0913   0.0000  -0.4383   0.0204   0.4631   0.2732
 382 C_l :3d0    0.0022  -0.0000   0.0102   0.0000  -0.0000  -0.0000  -0.0000
 383 C_l :3d1+  -0.0000  -0.0296  -0.0000   0.1143  -0.0098  -0.1004  -0.0384
 384 C_l :3d2+   0.0188  -0.0000   0.0444   0.0000  -0.0000  -0.0000  -0.0000
 388 C_m :1s     0.0361   0.0000   0.0344  -0.0000   0.0000   0.0000  -0.0000
 389 C_m :1s     0.0762   0.0000   0.0475  -0.0000  -0.0000   0.0000   0.0000
 392 C_m :2pz    0.0000  -0.2078   0.0000   0.2929  -0.0168  -0.2347  -0.0608
 395 C_m :2pz   -0.0000   0.0087   0.0000  -0.0067  -0.0001  -0.0027  -0.0129
 396 C_m :2px   -0.0438  -0.0000  -0.0659   0.0000  -0.0000  -0.0000   0.0000
 397 C_m :2py    0.0236  -0.0000   0.0137   0.0000   0.0000  -0.0000   0.0000
 398 C_m :2pz   -0.0000  -0.2500   0.0000   0.4003  -0.0369  -0.3375   0.0022
 399 C_m :2px    0.0460   0.0000  -0.0326  -0.0000  -0.0000   0.0000  -0.0000
 400 C_m :2py    0.0406  -0.0000   0.0096  -0.0000  -0.0000  -0.0000  -0.0000
 401 C_m :2pz   -0.0000  -0.0332  -0.0000  -0.0463  -0.0248  -0.0531   0.0968
 403 C_m :3d1-  -0.0000   0.0005  -0.0000   0.0044  -0.0006  -0.0118  -0.0156
 405 C_m :3d1+   0.0000  -0.0088   0.0000   0.0105  -0.0005  -0.0057   0.0016
 412 C_m :3d2-   0.0315   0.0000  -0.0877   0.0000   0.0000   0.0000   0.0000
 413 C_m :3d1-   0.0000   0.0607  -0.0000  -0.2346   0.0313   0.3921   0.1318
 415 C_m :3d1+  -0.0000  -0.0094   0.0000   0.0394  -0.0076  -0.0838  -0.0336
 416 C_m :3d2+  -0.0102  -0.0000   0.0139   0.0000  -0.0000  -0.0000   0.0000
 420 C_n :1s     0.0130  -0.0000   0.0575   0.0000   0.0000   0.0000  -0.0000
 421 C_n :1s     0.0937   0.0000  -0.0445   0.0000   0.0000   0.0000  -0.0000
 424 C_n :2pz    0.0000  -0.1456   0.0000   0.2477  -0.0170  -0.2767  -0.2110
 427 C_n :2pz   -0.0000   0.0104  -0.0000  -0.0136   0.0010   0.0148   0.0142
 428 C_n :2px    0.0492   0.0000   0.1172  -0.0000  -0.0000  -0.0000  -0.0000
 429 C_n :2py   -0.0523   0.0000   0.0138   0.0000  -0.0000   0.0000   0.0000
 430 C_n :2pz   -0.0000   0.0145  -0.0000   0.1997  -0.0206  -0.2493  -0.0897
 431 C_n :2px    0.0389  -0.0000   0.0028  -0.0000   0.0000   0.0000  -0.0000
 432 C_n :2py    0.0135  -0.0000  -0.0306   0.0000  -0.0000  -0.0000  -0.0000
 433 C_n :2pz    0.0000   0.0136  -0.0000  -0.0073  -0.0012   0.0685  -0.0139
 435 C_n :3d1-   0.0000   0.0081  -0.0000  -0.0101   0.0005   0.0055  -0.0047
 444 C_n :3d2-  -0.0400  -0.0000  -0.0970   0.0000   0.0000  -0.0000   0.0000
 445 C_n :3d1-   0.0000  -0.0756   0.0000  -0.0853   0.0057   0.2365   0.2278
 446 C_n :3d0    0.0004   0.0000  -0.0118  -0.0000   0.0000   0.0000  -0.0000
 447 C_n :3d1+  -0.0000   0.0063  -0.0000   0.0355  -0.0005  -0.0785  -0.0740
 448 C_n :3d2+   0.0186   0.0000   0.0061  -0.0000   0.0000   0.0000  -0.0000
 452 C_o :1s    -0.0097   0.0000  -0.0607  -0.0000  -0.0000   0.0000   0.0000
 453 C_o :1s    -0.1342  -0.0000  -0.0413   0.0000   0.0000  -0.0000  -0.0000
 456 C_o :2pz    0.0000  -0.0445  -0.0000   0.1145  -0.0100  -0.1910  -0.2557
 460 C_o :2px   -0.0232   0.0000   0.0768  -0.0000  -0.0000   0.0000  -0.0000
 461 C_o :2py    0.0128   0.0000  -0.0317  -0.0000  -0.0000  -0.0000  -0.0000
 462 C_o :2pz   -0.0000   0.0011  -0.0000   0.1059  -0.0054  -0.2506  -0.1806
 463 C_o :2px   -0.0234  -0.0000   0.0044   0.0000   0.0000  -0.0000  -0.0000
 464 C_o :2py   -0.0119   0.0000   0.0420  -0.0000  -0.0000   0.0000   0.0000
 465 C_o :2pz    0.0000   0.0079   0.0000   0.0228   0.0084  -0.0019  -0.0437
 476 C_o :3d2-   0.0186   0.0000  -0.0225   0.0000   0.0000   0.0000  -0.0000
 477 C_o :3d1-   0.0000  -0.0128  -0.0000  -0.0416   0.0083   0.1577   0.1048
 478 C_o :3d0    0.0069  -0.0000   0.0144  -0.0000  -0.0000  -0.0000   0.0000
 479 C_o :3d1+  -0.0000   0.0003   0.0000   0.0064   0.0012  -0.0143  -0.0121
 480 C_o :3d2+   0.0048  -0.0000   0.0369   0.0000  -0.0000  -0.0000   0.0000
 484 C_p :1s     0.0618  -0.0000   0.0153  -0.0000   0.0000  -0.0000  -0.0000
 485 C_p :1s    -0.1285  -0.0000   0.0044   0.0000   0.0000  -0.0000   0.0000
 488 C_p :2pz    0.0000   0.0362  -0.0000  -0.0200  -0.0003  -0.0252  -0.0862
 491 C_p :2pz   -0.0000  -0.0101   0.0000   0.0133  -0.0010  -0.0147  -0.0139
 492 C_p :2px    0.0226  -0.0000   0.0061   0.0000   0.0000  -0.0000   0.0000
 493 C_p :2py   -0.0127   0.0000   0.0692   0.0000   0.0000   0.0000   0.0000
 494 C_p :2pz   -0.0000   0.0544   0.0000   0.0315  -0.0104  -0.2000  -0.2164
 495 C_p :2px   -0.0169   0.0000   0.0044  -0.0000  -0.0000   0.0000   0.0000
 496 C_p :2py    0.0410  -0.0000  -0.0063   0.0000   0.0000  -0.0000  -0.0000
 497 C_p :2pz   -0.0000  -0.0097   0.0000   0.0076  -0.0035  -0.0294  -0.0053
 499 C_p :3d1-  -0.0000   0.0069  -0.0000  -0.0124   0.0010   0.0173   0.0215
 508 C_p :3d2-  -0.0189   0.0000  -0.0224   0.0000   0.0000   0.0000   0.0000
 509 C_p :3d1-   0.0000  -0.0258   0.0000  -0.0005   0.0005   0.0366   0.0477
 511 C_p :3d1+   0.0000   0.0084  -0.0000  -0.0079   0.0009   0.0102   0.0016
 516 N_a :1s    -0.0163  -0.0000   0.0011   0.0000   0.0000  -0.0000   0.0000
[...]

       No.  Residual tot.,    conf., and orb.    Bnorm      Frequency 
      ----------------------------------------------------------------
         1    1.27708D-01  0.00D+00  1.28D-01  7.23D+01    0.00000D+00
         2    1.32272D-01  0.00D+00  1.32D-01  7.52D+01    1.82000D-02
         3    1.47982D-01  0.00D+00  1.48D-01  8.48D+01    3.64000D-02

 ** RSPCTL MICROITERATION NUMBER    7

       No.  Residual tot.,    conf., and orb.    Bnorm      Frequency 
      ----------------------------------------------------------------
         1    4.13290D-02  0.00D+00  4.13D-02  7.23D+01    0.00000D+00
         2    4.32402D-02  0.00D+00  4.32D-02  7.52D+01    1.82000D-02
         3    4.99152D-02  0.00D+00  4.99D-02  8.48D+01    3.64000D-02

 *** THE REQUESTED    3 SOLUTION VECTORS CONVERGED

 Convergence of RSP solution vectors, threshold = 1.00D-03
 ---------------------------------------------------------------
 (dimension of paired reduced space:   42)
 RSP solution vector no.    1; norm of residual   5.71D-04
 RSP solution vector no.    2; norm of residual   5.75D-04
 RSP solution vector no.    3; norm of residual   5.88D-04

 *** RSPCTL MICROITERATIONS CONVERGED

@ QRLRVE: SINGLET SOLUTION FOR SYMMETRY    1  ( A  )    LABEL   YDIPLEN     FREQUENCY   0.000000D+00

@ QRLRVE:  << XDIPLEN  ; YDIPLEN  >> (   0.00000):    -152.601975880    

@ QRLRVE:  << YDIPLEN  ; YDIPLEN  >> (   0.00000):     1205.93285023    

@ QRLRVE:  << ZDIPLEN  ; YDIPLEN  >> (   0.00000):   -3.503512193839E-14

@ QRLRVE: SINGLET SOLUTION FOR SYMMETRY    1  ( A  )    LABEL   YDIPLEN     FREQUENCY   0.182000D-01

@ QRLRVE:  << XDIPLEN  ; YDIPLEN  >> (   0.01820):    -157.005771844    

@ QRLRVE:  << YDIPLEN  ; YDIPLEN  >> (   0.01820):     1235.18273390    

@ QRLRVE:  << ZDIPLEN  ; YDIPLEN  >> (   0.01820):   -3.672216727510E-14

@ QRLRVE: SINGLET SOLUTION FOR SYMMETRY    1  ( A  )    LABEL   YDIPLEN     FREQUENCY   0.364000D-01

@ QRLRVE:  << XDIPLEN  ; YDIPLEN  >> (   0.03640):    -171.883064695    

@ QRLRVE:  << YDIPLEN  ; YDIPLEN  >> (   0.03640):     1333.80152030    

@ QRLRVE:  << ZDIPLEN  ; YDIPLEN  >> (   0.03640):   -4.244663368421E-14


 QRLRVE -- linear response calculation for symmetry  1  ( A  )
 QRLRVE -- operator label : ZDIPLEN 
 QRLRVE -- operator spin  :   0
 QRLRVE -- frequencies :  0.000000  0.018200  0.036400



 ---  SOLVING SETS OF LINEAR EQUATIONS FOR LINEAR RESPONSE PROPERTIES ---

 Operator symmetry = 1  ( A  ); triplet =   F


 ** RSPCTL MICROITERATION NUMBER    1

       No.  Residual tot.,    conf., and orb.    Bnorm      Frequency 
      ----------------------------------------------------------------
         1    3.48614D+00  0.00D+00  3.49D+00  9.14D+00    0.00000D+00
         2    3.48898D+00  0.00D+00  3.49D+00  9.17D+00    1.82000D-02
         3    3.49753D+00  0.00D+00  3.50D+00  9.24D+00    3.64000D-02

 ** RSPCTL MICROITERATION NUMBER    2

       No.  Residual tot.,    conf., and orb.    Bnorm      Frequency 
      ----------------------------------------------------------------
         1    7.77321D-01  0.00D+00  7.77D-01  9.56D+00    0.00000D+00
         2    7.79310D-01  0.00D+00  7.79D-01  9.59D+00    1.82000D-02
         3    7.85341D-01  0.00D+00  7.85D-01  9.67D+00    3.64000D-02

 ** RSPCTL MICROITERATION NUMBER    3

       No.  Residual tot.,    conf., and orb.    Bnorm      Frequency 
      ----------------------------------------------------------------
         1    1.59321D-01  0.00D+00  1.59D-01  9.59D+00    0.00000D+00
         2    1.60228D-01  0.00D+00  1.60D-01  9.62D+00    1.82000D-02
         3    1.62999D-01  0.00D+00  1.63D-01  9.71D+00    3.64000D-02

 ** RSPCTL MICROITERATION NUMBER    4

       No.  Residual tot.,    conf., and orb.    Bnorm      Frequency 
      ----------------------------------------------------------------
         1    4.82608D-02  0.00D+00  4.83D-02  9.60D+00    0.00000D+00
         2    4.89749D-02  0.00D+00  4.90D-02  9.63D+00    1.82000D-02
         3    5.11993D-02  0.00D+00  5.12D-02  9.71D+00    3.64000D-02

 ** RSPCTL MICROITERATION NUMBER    5

       No.  Residual tot.,    conf., and orb.    Bnorm      Frequency 
      ----------------------------------------------------------------
         1    1.75004D-02  0.00D+00  1.75D-02  9.60D+00    0.00000D+00
         2    1.79449D-02  0.00D+00  1.79D-02  9.63D+00    1.82000D-02
         3    1.93442D-02  0.00D+00  1.93D-02  9.71D+00    3.64000D-02

 ** RSPCTL MICROITERATION NUMBER    6

       No.  Residual tot.,    conf., and orb.    Bnorm      Frequency 
      ----------------------------------------------------------------
         1    5.96694D-03  0.00D+00  5.97D-03  9.60D+00    0.00000D+00
         2    6.18429D-03  0.00D+00  6.18D-03  9.63D+00    1.82000D-02
         3    6.87630D-03  0.00D+00  6.88D-03  9.71D+00    3.64000D-02

 *** THE REQUESTED    3 SOLUTION VECTORS CONVERGED

 Convergence of RSP solution vectors, threshold = 1.00D-03
 ---------------------------------------------------------------
 (dimension of paired reduced space:   36)
 RSP solution vector no.    1; norm of residual   6.22D-04
 RSP solution vector no.    2; norm of residual   6.42D-04
 RSP solution vector no.    3; norm of residual   7.08D-04

 *** RSPCTL MICROITERATIONS CONVERGED

@ QRLRVE: SINGLET SOLUTION FOR SYMMETRY    1  ( A  )    LABEL   ZDIPLEN     FREQUENCY   0.000000D+00

@ QRLRVE:  << XDIPLEN  ; ZDIPLEN  >> (   0.00000):   -3.837263651270E-14

@ QRLRVE:  << YDIPLEN  ; ZDIPLEN  >> (   0.00000):   -3.949840822903E-14

@ QRLRVE:  << ZDIPLEN  ; ZDIPLEN  >> (   0.00000):     132.728665082    

@ QRLRVE: SINGLET SOLUTION FOR SYMMETRY    1  ( A  )    LABEL   ZDIPLEN     FREQUENCY   0.182000D-01

@ QRLRVE:  << XDIPLEN  ; ZDIPLEN  >> (   0.01820):   -3.904182325876E-14

@ QRLRVE:  << YDIPLEN  ; ZDIPLEN  >> (   0.01820):   -4.099296013546E-14

@ QRLRVE:  << ZDIPLEN  ; ZDIPLEN  >> (   0.01820):     132.883445179    

@ QRLRVE: SINGLET SOLUTION FOR SYMMETRY    1  ( A  )    LABEL   ZDIPLEN     FREQUENCY   0.364000D-01

@ QRLRVE:  << XDIPLEN  ; ZDIPLEN  >> (   0.03640):   -4.115387828315E-14

@ QRLRVE:  << YDIPLEN  ; ZDIPLEN  >> (   0.03640):   -4.606739766205E-14

@ QRLRVE:  << ZDIPLEN  ; ZDIPLEN  >> (   0.03640):     133.351754112    
 
 ======================================================================
 ---  L I N E A R   R E S P O N S E   F U N C T I O N S --- 
 ======================================================================

 The -<<A;B>>(omega_b) functions from vectors generated
 in a *QUADRA calculation of <<A;B,C>>(omega_b,omega_c)

 Note: the accuracy of off-diagonal elements will be linear
 in the convergence threshold THCLR =  1.00D-03


 Perturbation symmetry.     KSYMOP:           1
 Perturbation spin symmetry.TRPLET:           F
 Orbital variables.         KZWOPT:       53712
 Configuration variables.   KZCONF:           0
 Total number of variables. KZVAR :       53712

@ Singlet linear response function in a.u.

@ A operator, symmetry, frequency:   XDIPLEN    1 -0.000000
@ B operator, symmetry, frequency:   XDIPLEN    1  0.000000

@ Value of linear response -<<A;B>>(omega):     206.603074115549

@ Singlet linear response function in a.u.

@ A operator, symmetry, frequency:   YDIPLEN    1 -0.000000
@ B operator, symmetry, frequency:   XDIPLEN    1  0.000000

@ Value of linear response -<<A;B>>(omega):    -152.629834343644

@ Singlet linear response function in a.u.

@ A operator, symmetry, frequency:   ZDIPLEN    1 -0.000000
@ B operator, symmetry, frequency:   XDIPLEN    1  0.000000

@ Value of linear response -<<A;B>>(omega):      -0.000000000000

@ Singlet linear response function in a.u.

@ A operator, symmetry, frequency:   XDIPLEN    1 -0.018200
@ B operator, symmetry, frequency:   XDIPLEN    1  0.018200

@ Value of linear response -<<A;B>>(omega):     207.528375051032

@ Singlet linear response function in a.u.

@ A operator, symmetry, frequency:   YDIPLEN    1 -0.018200
@ B operator, symmetry, frequency:   XDIPLEN    1  0.018200

@ Value of linear response -<<A;B>>(omega):    -157.035252920384

@ Singlet linear response function in a.u.

@ A operator, symmetry, frequency:   ZDIPLEN    1 -0.018200
@ B operator, symmetry, frequency:   XDIPLEN    1  0.018200

@ Value of linear response -<<A;B>>(omega):      -0.000000000000

@ Singlet linear response function in a.u.

@ A operator, symmetry, frequency:   XDIPLEN    1 -0.000000
@ B operator, symmetry, frequency:   YDIPLEN    1  0.000000

@ Value of linear response -<<A;B>>(omega):    -152.601975879602

@ Singlet linear response function in a.u.

@ A operator, symmetry, frequency:   YDIPLEN    1 -0.000000
@ B operator, symmetry, frequency:   YDIPLEN    1  0.000000

@ Value of linear response -<<A;B>>(omega):    1205.932850230572

@ Singlet linear response function in a.u.

@ A operator, symmetry, frequency:   ZDIPLEN    1 -0.000000
@ B operator, symmetry, frequency:   YDIPLEN    1  0.000000

@ Value of linear response -<<A;B>>(omega):      -0.000000000000

@ Singlet linear response function in a.u.

@ A operator, symmetry, frequency:   XDIPLEN    1 -0.018200
@ B operator, symmetry, frequency:   YDIPLEN    1  0.018200

@ Value of linear response -<<A;B>>(omega):    -157.005771844073

@ Singlet linear response function in a.u.

@ A operator, symmetry, frequency:   YDIPLEN    1 -0.018200
@ B operator, symmetry, frequency:   YDIPLEN    1  0.018200

@ Value of linear response -<<A;B>>(omega):    1235.182733895779

@ Singlet linear response function in a.u.

@ A operator, symmetry, frequency:   ZDIPLEN    1 -0.018200
@ B operator, symmetry, frequency:   YDIPLEN    1  0.018200

@ Value of linear response -<<A;B>>(omega):      -0.000000000000

@ Singlet linear response function in a.u.

@ A operator, symmetry, frequency:   XDIPLEN    1 -0.000000
@ B operator, symmetry, frequency:   ZDIPLEN    1  0.000000

@ Value of linear response -<<A;B>>(omega):      -0.000000000000

@ Singlet linear response function in a.u.

@ A operator, symmetry, frequency:   YDIPLEN    1 -0.000000
@ B operator, symmetry, frequency:   ZDIPLEN    1  0.000000

@ Value of linear response -<<A;B>>(omega):      -0.000000000000

@ Singlet linear response function in a.u.

@ A operator, symmetry, frequency:   ZDIPLEN    1 -0.000000
@ B operator, symmetry, frequency:   ZDIPLEN    1  0.000000

@ Value of linear response -<<A;B>>(omega):     132.728665081725

@ Singlet linear response function in a.u.

@ A operator, symmetry, frequency:   XDIPLEN    1 -0.018200
@ B operator, symmetry, frequency:   ZDIPLEN    1  0.018200

@ Value of linear response -<<A;B>>(omega):      -0.000000000000

@ Singlet linear response function in a.u.

@ A operator, symmetry, frequency:   YDIPLEN    1 -0.018200
@ B operator, symmetry, frequency:   ZDIPLEN    1  0.018200

@ Value of linear response -<<A;B>>(omega):      -0.000000000000

@ Singlet linear response function in a.u.

@ A operator, symmetry, frequency:   ZDIPLEN    1 -0.018200
@ B operator, symmetry, frequency:   ZDIPLEN    1  0.018200

@ Value of linear response -<<A;B>>(omega):     132.883445178767


  Results from quadratic response calculation
 --------------------------------------------

@ B-freq = 0.000000  C-freq = 0.000000     beta(X;X,X) =   -815.58054566
@ B-freq = 0.000000  C-freq = 0.000000     beta(Y;X,X) =   3472.71874384
@ B-freq = 0.000000  C-freq = 0.000000     beta(Z;X,X) =      0.00000000
@ B-freq = 0.018200  C-freq = 0.000000     beta(X;X,X) =   -851.57322867
@ B-freq = 0.018200  C-freq = 0.000000     beta(Y;X,X) =   3646.39047495
@ B-freq = 0.018200  C-freq = 0.000000     beta(Z;X,X) =      0.00000000
@ B-freq = 0.000000  C-freq = 0.000000     beta(X;Y,X) = beta(Y,X,X)
@ B-freq = 0.000000  C-freq = 0.000000     beta(X;Y,X) =   3472.71893908
@ B-freq = 0.000000  C-freq = 0.000000     beta(Y;Y,X) = -12924.90279820
@ B-freq = 0.000000  C-freq = 0.000000     beta(Z;Y,X) =      0.00000000
@ B-freq = 0.018200  C-freq = 0.000000     beta(X;Y,X) =   3646.39067955
@ B-freq = 0.018200  C-freq = 0.000000     beta(Y;Y,X) = -13721.14093478
@ B-freq = 0.018200  C-freq = 0.000000     beta(Z;Y,X) =      0.00000000
@ B-freq = 0.000000  C-freq = 0.000000     beta(X;Z,X) = beta(Z,X,X)
@ B-freq = 0.000000  C-freq = 0.000000     beta(Y;Z,X) = beta(Z,Y,X)
@ B-freq = 0.000000  C-freq = 0.000000     beta(X;Z,X) =      0.00000000
@ B-freq = 0.000000  C-freq = 0.000000     beta(Y;Z,X) =      0.00000000
@ B-freq = 0.000000  C-freq = 0.000000     beta(Z;Z,X) =     13.05915013
@ B-freq = 0.018200  C-freq = 0.000000     beta(X;Z,X) =      0.00000000
@ B-freq = 0.018200  C-freq = 0.000000     beta(Y;Z,X) =      0.00000000
@ B-freq = 0.018200  C-freq = 0.000000     beta(Z;Z,X) =     13.20754288
@ B-freq = 0.000000  C-freq = 0.018200     beta(X;X,X) = beta(X,X,X)
@ B-freq = 0.000000  C-freq = 0.018200     beta(Y;X,X) = beta(Y,X,X)
@ B-freq = 0.000000  C-freq = 0.018200     beta(Z;X,X) = beta(Z,X,X)
@ B-freq = 0.018200  C-freq = 0.018200     beta(X;X,X) =   -932.28516492
@ B-freq = 0.018200  C-freq = 0.018200     beta(Y;X,X) =   4084.91618455
@ B-freq = 0.018200  C-freq = 0.018200     beta(Z;X,X) =      0.00000000
@ B-freq = 0.000000  C-freq = 0.018200     beta(X;Y,X) =   3607.33049617
@ B-freq = 0.000000  C-freq = 0.018200     beta(Y;Y,X) = -13535.40097034
@ B-freq = 0.000000  C-freq = 0.018200     beta(Z;Y,X) =      0.00000000
@ B-freq = 0.018200  C-freq = 0.018200     beta(X;Y,X) =   3950.97511014
@ B-freq = 0.018200  C-freq = 0.018200     beta(Y;Y,X) = -15335.56441509
@ B-freq = 0.018200  C-freq = 0.018200     beta(Z;Y,X) =      0.00000000
@ B-freq = 0.000000  C-freq = 0.018200     beta(X;Z,X) =      0.00000000
@ B-freq = 0.000000  C-freq = 0.018200     beta(Y;Z,X) =      0.00000000
@ B-freq = 0.000000  C-freq = 0.018200     beta(Z;Z,X) =     13.20548632
@ B-freq = 0.018200  C-freq = 0.018200     beta(X;Z,X) =      0.00000000
@ B-freq = 0.018200  C-freq = 0.018200     beta(Y;Z,X) =      0.00000000
@ B-freq = 0.018200  C-freq = 0.018200     beta(Z;Z,X) =     13.51453088
@ B-freq = 0.000000  C-freq = 0.000000     beta(X;X,Y) = beta(Y,X,X)
@ B-freq = 0.000000  C-freq = 0.000000     beta(Y;X,Y) = beta(Y,Y,X)
@ B-freq = 0.000000  C-freq = 0.000000     beta(Z;X,Y) = beta(Z,Y,X)
@ B-freq = 0.018200  C-freq = 0.000000     beta(X;X,Y) = beta(X,Y,X)
@ B-freq = 0.018200  C-freq = 0.000000     beta(Y;X,Y) = beta(Y,Y,X)
@ B-freq = 0.018200  C-freq = 0.000000     beta(Z;X,Y) = beta(Z,Y,X)
@ B-freq = 0.000000  C-freq = 0.000000     beta(X;Y,Y) = beta(Y,Y,X)
@ B-freq = 0.000000  C-freq = 0.000000     beta(X;Y,Y) = -12924.90417864
@ B-freq = 0.000000  C-freq = 0.000000     beta(Y;Y,Y) =  39892.49135691
@ B-freq = 0.000000  C-freq = 0.000000     beta(Z;Y,Y) =     -0.00000000
@ B-freq = 0.018200  C-freq = 0.000000     beta(X;Y,Y) = -13535.40241783
@ B-freq = 0.018200  C-freq = 0.000000     beta(Y;Y,Y) =  42403.94461545
@ B-freq = 0.018200  C-freq = 0.000000     beta(Z;Y,Y) =     -0.00000000
@ B-freq = 0.000000  C-freq = 0.000000     beta(X;Z,Y) = beta(Z,Y,X)
@ B-freq = 0.000000  C-freq = 0.000000     beta(Y;Z,Y) = beta(Z,Y,Y)
@ B-freq = 0.000000  C-freq = 0.000000     beta(X;Z,Y) =      0.00000000
@ B-freq = 0.000000  C-freq = 0.000000     beta(Y;Z,Y) =     -0.00000000
@ B-freq = 0.000000  C-freq = 0.000000     beta(Z;Z,Y) =    -44.16019320
@ B-freq = 0.018200  C-freq = 0.000000     beta(X;Z,Y) =      0.00000000
@ B-freq = 0.018200  C-freq = 0.000000     beta(Y;Z,Y) =     -0.00000000
@ B-freq = 0.018200  C-freq = 0.000000     beta(Z;Z,Y) =    -44.92014039
@ B-freq = 0.000000  C-freq = 0.018200     beta(X;X,Y) = beta(X,Y,X)
@ B-freq = 0.000000  C-freq = 0.018200     beta(Y;X,Y) = beta(Y,Y,X)
@ B-freq = 0.000000  C-freq = 0.018200     beta(Z;X,Y) = beta(Z,Y,X)
@ B-freq = 0.018200  C-freq = 0.018200     beta(X;X,Y) = beta(X,Y,X)
@ B-freq = 0.018200  C-freq = 0.018200     beta(Y;X,Y) = beta(Y,Y,X)
@ B-freq = 0.018200  C-freq = 0.018200     beta(Z;X,Y) = beta(Z,Y,X)
@ B-freq = 0.000000  C-freq = 0.018200     beta(X;Y,Y) = beta(X,Y,Y)
@ B-freq = 0.000000  C-freq = 0.018200     beta(Y;Y,Y) = beta(Y,Y,Y)
@ B-freq = 0.000000  C-freq = 0.018200     beta(Z;Y,Y) = beta(Z,Y,Y)
@ B-freq = 0.018200  C-freq = 0.018200     beta(X;Y,Y) = -14700.92128214
@ B-freq = 0.018200  C-freq = 0.018200     beta(Y;Y,Y) =  48164.04918157
@ B-freq = 0.018200  C-freq = 0.018200     beta(Z;Y,Y) =     -0.00000000
@ B-freq = 0.000000  C-freq = 0.018200     beta(X;Z,Y) =      0.00000000
@ B-freq = 0.000000  C-freq = 0.018200     beta(Y;Z,Y) =     -0.00000000
@ B-freq = 0.000000  C-freq = 0.018200     beta(Z;Z,Y) =    -45.03489023
@ B-freq = 0.018200  C-freq = 0.018200     beta(X;Z,Y) =      0.00000000
@ B-freq = 0.018200  C-freq = 0.018200     beta(Y;Z,Y) =     -0.00000000
@ B-freq = 0.018200  C-freq = 0.018200     beta(Z;Z,Y) =    -46.63021399
@ B-freq = 0.000000  C-freq = 0.000000     beta(X;X,Z) = beta(Z,X,X)
@ B-freq = 0.000000  C-freq = 0.000000     beta(Y;X,Z) = beta(Z,Y,X)
@ B-freq = 0.000000  C-freq = 0.000000     beta(Z;X,Z) = beta(Z,Z,X)
@ B-freq = 0.018200  C-freq = 0.000000     beta(X;X,Z) = beta(X,Z,X)
@ B-freq = 0.018200  C-freq = 0.000000     beta(Y;X,Z) = beta(Y,Z,X)
@ B-freq = 0.018200  C-freq = 0.000000     beta(Z;X,Z) = beta(Z,Z,X)
@ B-freq = 0.000000  C-freq = 0.000000     beta(X;Y,Z) = beta(Z,Y,X)
@ B-freq = 0.000000  C-freq = 0.000000     beta(Y;Y,Z) = beta(Z,Y,Y)
@ B-freq = 0.000000  C-freq = 0.000000     beta(Z;Y,Z) = beta(Z,Z,Y)
@ B-freq = 0.018200  C-freq = 0.000000     beta(X;Y,Z) = beta(X,Z,Y)
@ B-freq = 0.018200  C-freq = 0.000000     beta(Y;Y,Z) = beta(Y,Z,Y)
@ B-freq = 0.018200  C-freq = 0.000000     beta(Z;Y,Z) = beta(Z,Z,Y)
@ B-freq = 0.000000  C-freq = 0.000000     beta(X;Z,Z) = beta(Z,Z,X)
@ B-freq = 0.000000  C-freq = 0.000000     beta(Y;Z,Z) = beta(Z,Z,Y)
@ B-freq = 0.000000  C-freq = 0.000000     beta(X;Z,Z) =     13.05913538
@ B-freq = 0.000000  C-freq = 0.000000     beta(Y;Z,Z) =    -44.16013447
@ B-freq = 0.000000  C-freq = 0.000000     beta(Z;Z,Z) =      0.00000000
@ B-freq = 0.018200  C-freq = 0.000000     beta(X;Z,Z) =     13.20547116
@ B-freq = 0.018200  C-freq = 0.000000     beta(Y;Z,Z) =    -45.03482907
@ B-freq = 0.018200  C-freq = 0.000000     beta(Z;Z,Z) =      0.00000000
@ B-freq = 0.000000  C-freq = 0.018200     beta(X;X,Z) = beta(X,Z,X)
@ B-freq = 0.000000  C-freq = 0.018200     beta(Y;X,Z) = beta(Y,Z,X)
@ B-freq = 0.000000  C-freq = 0.018200     beta(Z;X,Z) = beta(Z,Z,X)
@ B-freq = 0.018200  C-freq = 0.018200     beta(X;X,Z) = beta(X,Z,X)
@ B-freq = 0.018200  C-freq = 0.018200     beta(Y;X,Z) = beta(Y,Z,X)
@ B-freq = 0.018200  C-freq = 0.018200     beta(Z;X,Z) = beta(Z,Z,X)
@ B-freq = 0.000000  C-freq = 0.018200     beta(X;Y,Z) = beta(X,Z,Y)
@ B-freq = 0.000000  C-freq = 0.018200     beta(Y;Y,Z) = beta(Y,Z,Y)
@ B-freq = 0.000000  C-freq = 0.018200     beta(Z;Y,Z) = beta(Z,Z,Y)
@ B-freq = 0.018200  C-freq = 0.018200     beta(X;Y,Z) = beta(X,Z,Y)
@ B-freq = 0.018200  C-freq = 0.018200     beta(Y;Y,Z) = beta(Y,Z,Y)
@ B-freq = 0.018200  C-freq = 0.018200     beta(Z;Y,Z) = beta(Z,Z,Y)
@ B-freq = 0.000000  C-freq = 0.018200     beta(X;Z,Z) = beta(X,Z,Z)
@ B-freq = 0.000000  C-freq = 0.018200     beta(Y;Z,Z) = beta(Y,Z,Z)
@ B-freq = 0.000000  C-freq = 0.018200     beta(Z;Z,Z) = beta(Z,Z,Z)
@ B-freq = 0.018200  C-freq = 0.018200     beta(X;Z,Z) =     13.51916813
@ B-freq = 0.018200  C-freq = 0.018200     beta(Y;Z,Z) =    -47.06372723
@ B-freq = 0.018200  C-freq = 0.018200     beta(Z;Z,Z) =      0.00000000

  Total CPU  time used in RESPONSE: 11 minutes 12 seconds
  Total wall time used in RESPONSE: 11 minutes 18 seconds


                   .-------------------------------------------.
                   | End of Dynamic Property Section (RESPONS) |
                   `-------------------------------------------'

  Total CPU  time used in DALTON: 15 minutes 10 seconds
  Total wall time used in DALTON: 15 minutes 17 seconds

 
     Date and time (Linux)  : Thu May 29 16:18:58 2025
     Host name              : xm009                                   
