

     ************************************************************************
     *************** Dalton - An Electronic Structure Program ***************
     ************************************************************************

    This is output from DALTON release Dalton2020.0 (2020)
         ( Web site: http://daltonprogram.org )

   ----------------------------------------------------------------------------

    NOTE:
     
    Dalton is an experimental code for the evaluation of molecular
    properties using (MC)SCF, DFT, CI, and CC wave functions.
    The authors accept no responsibility for the performance of
    the code or for the correctness of the results.
     
    The code (in whole or part) is provided under a licence and
    is not to be reproduced for further distribution without
    the written permission of the authors or their representatives.
     
    See the home page "http://daltonprogram.org" for further information.
     
    If results obtained with this code are published,
    the appropriate citations would be both of:
     
       K. Aidas, C. Angeli, K. L. Bak, V. Bakken, R. Bast,
       L. Boman, O. Christiansen, R. Cimiraglia, S. Coriani,
       P. Dahle, E. K. Dalskov, U. Ekstroem,
       T. Enevoldsen, J. J. Eriksen, P. Ettenhuber, B. Fernandez,
       L. Ferrighi, H. Fliegl, L. Frediani, K. Hald, A. Halkier,
       C. Haettig, H. Heiberg, T. Helgaker, A. C. Hennum,
       H. Hettema, E. Hjertenaes, S. Hoest, I.-M. Hoeyvik,
       M. F. Iozzi, B. Jansik, H. J. Aa. Jensen, D. Jonsson,
       P. Joergensen, J. Kauczor, S. Kirpekar,
       T. Kjaergaard, W. Klopper, S. Knecht, R. Kobayashi, H. Koch,
       J. Kongsted, A. Krapp, K. Kristensen, A. Ligabue,
       O. B. Lutnaes, J. I. Melo, K. V. Mikkelsen, R. H. Myhre,
       C. Neiss, C. B. Nielsen, P. Norman, J. Olsen,
       J. M. H. Olsen, A. Osted, M. J. Packer, F. Pawlowski,
       T. B. Pedersen, P. F. Provasi, S. Reine, Z. Rinkevicius,
       T. A. Ruden, K. Ruud, V. Rybkin, P. Salek, C. C. M. Samson,
       A. Sanchez de Meras, T. Saue, S. P. A. Sauer,
       B. Schimmelpfennig, K. Sneskov, A. H. Steindal,
       K. O. Sylvester-Hvid, P. R. Taylor, A. M. Teale,
       E. I. Tellgren, D. P. Tew, A. J. Thorvaldsen, L. Thoegersen,
       O. Vahtras, M. A. Watson, D. J. D. Wilson, M. Ziolkowski
       and H. Agren,
       "The Dalton quantum chemistry program system",
       WIREs Comput. Mol. Sci. 2014, 4:269–284 (doi: 10.1002/wcms.1172)
     
    and
     
       Dalton, a molecular electronic structure program,
       Release Dalton2020.0 (2020), see http://daltonprogram.org
   ----------------------------------------------------------------------------

    Authors in alphabetical order (Major contribution(s) in parenthesis):

  Kestutis Aidas,           Vilnius University,           Lithuania   (QM/MM)
  Celestino Angeli,         University of Ferrara,        Italy       (NEVPT2)
  Keld L. Bak,              UNI-C,                        Denmark     (AOSOPPA, non-adiabatic coupling, magnetic properties)
  Vebjoern Bakken,          University of Oslo,           Norway      (DALTON; geometry optimizer, symmetry detection)
  Radovan Bast,             UiT The Arctic U. of Norway,  Norway      (DALTON installation and execution frameworks)
  Pablo Baudin,             University of Valencia,       Spain       (Cholesky excitation energies)
  Linus Boman,              NTNU,                         Norway      (Cholesky decomposition and subsystems)
  Bruno N. Cabral Tenorio,  Technical Univ. of Denmark,   Denmark     (Lanczos-based CC methods)
  Ove Christiansen,         Aarhus University,            Denmark     (CC module)
  Renzo Cimiraglia,         University of Ferrara,        Italy       (NEVPT2)
  Sonia Coriani,            Technical Univ. of Denmark,   Denmark     (CC and RESPONS modules)
  Janusz Cukras,            University of Warsaw,         Poland      (MChD in RESPONS)
  Paal Dahle,               University of Oslo,           Norway      (Parallelization)
  Erik K. Dalskov,          UNI-C,                        Denmark     (SOPPA)
  Thomas Enevoldsen,        Univ. of Southern Denmark,    Denmark     (SOPPA)
  Janus J. Eriksen,         Aarhus University,            Denmark     (Polarizable embedding, TDA)
  Rasmus Faber,             Technical Univ. of Denmark,   Denmark     (Vib.avg. NMR w. SOPPA, parallel AO-SOPPA, CVS-CC and EOMCC)
  Tobias Fahleson,          KTH Stockholm,                Sweden      (Damped cubic response)
  Berta Fernandez,          U. of Santiago de Compostela, Spain       (Doublet spin, ESR in RESPONS)
  Lara Ferrighi,            Aarhus University,            Denmark     (PCM Cubic response)
  Heike Fliegl,             University of Oslo,           Norway      (CCSD(R12))
  Luca Frediani,            UiT The Arctic U. of Norway,  Norway      (PCM)
  Emmanuel Fromager,        Univ. Strasbourg,             France      (MC-srDFT)
  Bin Gao,                  UiT The Arctic U. of Norway,  Norway      (Gen1Int library)
  Andre S. P. Gomes,        CNRS/Universite de Lille,     France      (Frozen density embedding)
  Christof Haettig,         Ruhr-University Bochum,       Germany     (CC module)
  Kasper Hald,              Aarhus University,            Denmark     (CC module)
  Asger Halkier,            Aarhus University,            Denmark     (CC module)
  Frederik Beyer Hansen,    University of Copenhagen,     Denmark     (Parallel AO-SOPPA)
  Erik D. Hedegaard,        Univ. of Southern Denmark,    Denmark     (Polarizable embedding, QM/MM, and MC-srDFT)
  Hanne Heiberg,            University of Oslo,           Norway      (Geometry analysis, selected one-electron integrals)
  Trygve Helgaker,          University of Oslo,           Norway      (DALTON; ABACUS, ERI, DFT modules, London, and much more)
  Alf Christian Hennum,     University of Oslo,           Norway      (Parity violation)
  Hinne Hettema,            University of Auckland,       New Zealand (Quadratic response in RESPONS; SIRIUS supersymmetry)
  Eirik Hjertenaes,         NTNU,                         Norway      (Cholesky decomposition)
  Pi A. B. Haase,           University of Copenhagen,     Denmark     (Triplet AO-SOPPA)
  Maria Francesca Iozzi,    University of Oslo,           Norway      (RPA)
  Christoph Jacob           TU Braunschweig               Germany     (Frozen density embedding)
  Brano Jansik              Technical Univ. of Ostrava    Czech Rep.  (DFT cubic response)
  Hans Joergen Aa. Jensen,  Univ. of Southern Denmark,    Denmark     (DALTON; SIRIUS, RESPONS, ABACUS, MC-srDFT, and much more)
  Dan Jonsson,              UiT The Arctic U. of Norway,  Norway      (Cubic response in RESPONS module)
  Poul Joergensen,          Aarhus University,            Denmark     (RESPONS, ABACUS, and CC modules)
  Maciej Kaminski,          University of Warsaw,         Poland      (CPPh in RESPONS)
  Joanna Kauczor,           Linkoeping University,        Sweden      (Complex polarization propagator (CPP) module)
  Sheela Kirpekar,          Univ. of Southern Denmark,    Denmark     (Mass-velocity & Darwin integrals)
  Erik Kjellgren,           Univ. of Southern Denmark,    Denmark     (MC-srDFT)
  Wim Klopper,              KIT Karlsruhe,                Germany     (R12 code in CC, SIRIUS, and ABACUS modules)
  Stefan Knecht,            ETH Zurich,                   Switzerland (Parallel CI and MCSCF, MC-srDFT)
  Rika Kobayashi,           Australian National Univ.,    Australia   (DIIS in CC, London in MCSCF)
  Henrik Koch,              NTNU,                         Norway      (CC module, Cholesky decomposition)
  Jacob Kongsted,           Univ. of Southern Denmark,    Denmark     (Polarizable embedding, polarizable density embedding, QM/MM)
  Andrea Ligabue,           University of Modena,         Italy       (CTOCD, AOSOPPA)
  Nanna H. List             Univ. of Southern Denmark,    Denmark     (Polarizable embedding)
  Ola B. Lutnaes,           University of Oslo,           Norway      (DFT Hessian)
  Juan I. Melo,             University of Buenos Aires,   Argentina   (LRESC, Relativistic Effects on NMR Shieldings)
  Kurt V. Mikkelsen,        University of Copenhagen,     Denmark     (MC-SCRF and QM/MM)
  Rolf H. Myhre,            NTNU,                         Norway      (Subsystems and CC3)
  Christian Neiss,          Univ. Erlangen-Nuernberg,     Germany     (CCSD(R12))
  Christian B. Nielsen,     University of Copenhagen,     Denmark     (QM/MM)
  Patrick Norman,           KTH Stockholm,                Sweden      (Cubic response and complex frequency response in RESPONS)
  Jeppe Olsen,              Aarhus University,            Denmark     (SIRIUS CI/density modules)
  Jogvan Magnus H. Olsen,   Aarhus University,            Denmark     (Polarizable embedding and polarizable density embedding)
  Anders Osted,             Copenhagen University,        Denmark     (QM/MM)
  Martin J. Packer,         University of Sheffield,      UK          (SOPPA)
  Filip Pawlowski,          Kazimierz Wielki University,  Poland      (CC3)
  Morten N. Pedersen,       Univ. of Southern Denmark,    Denmark     (Polarizable embedding)
  Thomas B. Pedersen,       University of Oslo,           Norway      (Cholesky decomposition)
  Patricio F. Provasi,      University of Northeastern,   Argentina   (Analysis of coupling constants in localized orbitals)
  Peter Reinholdt,          Univ. of Southern Denmark,    Denmark     (Polarizable embedding and polarizable density embedding)
  Zilvinas Rinkevicius,     KTH Stockholm,                Sweden      (open-shell DFT, ESR)
  Elias Rudberg,            KTH Stockholm,                Sweden      (DFT grid and basis info)
  Torgeir A. Ruden,         University of Oslo,           Norway      (Numerical derivatives in ABACUS)
  Kenneth Ruud,             UiT The Arctic U. of Norway,  Norway      (DALTON; ABACUS magnetic properties and much more)
  Pawel Salek,              KTH Stockholm,                Sweden      (DALTON; DFT code)
  Claire C. M. Samson       University of Karlsruhe       Germany     (Boys localization, r12 integrals in ERI)
  Alfredo Sanchez de Meras, University of Valencia,       Spain       (CC module, Cholesky decomposition)
  Trond Saue,               Paul Sabatier University,     France      (direct Fock matrix construction)
  Stephan P. A. Sauer,      University of Copenhagen,     Denmark     (SOPPA(CCSD), SOPPA prop., AOSOPPA, vibrational g-factors)
  Bernd Schimmelpfennig,    Forschungszentrum Karlsruhe,  Germany     (AMFI module)
  Anna K. Schnack-Petersen, University of Copenhagen,     Denmark     (RPA(D) and HRPA(D) properties in AOSOPPA)
  Kristian Sneskov,         Aarhus University,            Denmark     (Polarizable embedding, QM/MM)
  Arnfinn H. Steindal,      UiT The Arctic U. of Norway,  Norway      (parallel QM/MM, polarizable embedding)
  Casper Steinmann,         Aalborg University,           Denmark     (QFIT, polarizable embedding)
  K. O. Sylvester-Hvid,     University of Copenhagen,     Denmark     (MC-SCRF)
  Peter R. Taylor,          VLSCI/Univ. of Melbourne,     Australia   (Symmetry handling ABACUS, integral transformation)
  Andrew M. Teale,          University of Nottingham,     England     (DFT-AC, DFT-D)
  David P. Tew,             University of Bristol,        England     (CCSD(R12))
  Julien Toulouse,          Sorbonne Univ.,               France      (MC-srDFT)
  Olav Vahtras,             KTH Stockholm,                Sweden      (Triplet response, spin-orbit, ESR, TDDFT, open-shell DFT)
  Lucas Visscher,           Vrije Universiteit Amsterdam, Netherlands (Frozen density embedding)
  David J. Wilson,          La Trobe University,          Australia   (DFT Hessian and DFT magnetizabilities)
  Hans Agren,               KTH Stockholm,                Sweden      (SIRIUS module, RESPONS, MC-SCRF solvation)
 --------------------------------------------------------------------------------

     Date and time (Linux)  : Wed May 28 21:12:18 2025
     Host name              : xm009                                   

 * Work memory size             :   131072000 = 1000.00 megabytes.

 * Directories for basis set searches:
   1) /gpfs/projects/rjh/adrian/summer2025/beta_projects/raw_data/NLO/dalton/hf/n8/dipole
   2) /gpfs/projects/rjh/adrian/dalton/build/basis


Compilation information
-----------------------

 Who compiled             | ahurtado
 Host                     | milan2
 System                   | Linux-5.14.0-427.42.1.el9_4.x86_64
 CMake generator          | Unix Makefiles
 Processor                | x86_64
 64-bit integers          | OFF
 MPI                      | ON
 Fortran compiler         | /gpfs/software/openmpi/milan/gcc13.2/4.1.6/bin/mpi
                          | f90
 Fortran compiler version | GNU Fortran (GCC) 13.2.0
 C compiler               | /gpfs/software/openmpi/milan/gcc13.2/4.1.6/bin/mpi
                          | cc
 C compiler version       | gcc (GCC) 13.2.0
 C++ compiler             | /gpfs/software/openmpi/milan/gcc13.2/4.1.6/bin/mpi
                          | cxx
 C++ compiler version     | unknown
 BLAS                     | /gpfs/software/intel/oneAPI/2024_2/mkl/2024.2/lib/
                          | intel64/libmkl_gf_lp64.so;/gpfs/software/intel/one
                          | API/2024_2/mkl/2024.2/lib/intel64/libmkl_sequentia
                          | l.so;/gpfs/software/intel/oneAPI/2024_2/mkl/2024.2
                          | /lib/intel64/libmkl_core.so;/usr/lib64/libpthread.
                          | a;/usr/lib64/libm.so
 LAPACK                   | /gpfs/software/intel/oneAPI/2024_2/mkl/2024.2/lib/
                          | intel64/libmkl_lapack95_lp64.a;/gpfs/software/inte
                          | l/oneAPI/2024_2/mkl/2024.2/lib/intel64/libmkl_gf_l
                          | p64.so
 Static linking           | OFF
 Last Git revision        | 66052b3af5ea7225e31178bf9a8b031913c72190
 Git branch               | (HEAD detached at Dalton2020.0)
 Configuration time       | 2025-04-10 16:02:31.569498

 * MPI parallel run using 576 processes.


   Content of the .dal input file
 ----------------------------------

**DALTON INPUT
.RUN RESPONSE
.DIRECT
**WAVE FUNCTIONS
.HF
**PROPERTIES
**RESPONSE
*QUADRA
.DIPLEN
.FREQUENCIES
2
0.0 0.0182
**END OF DALTON INPUT


   Content of the .mol file
 ----------------------------

BASIS
aug-cc-pVQZ
blah
blah
Atomtype=4 Angstrom Charge=0 Nosymmetry
Charge=6 Atoms=16
C_a 1.6519229998176075 -8.049175002179144 0.0
C_b 1.9444589988455454 -6.728077999620022 0.0
C_c 0.9366040010539604 -5.690966000374534 0.0
C_d 1.2516239989151714 -4.3572310024581675 0.0
C_e 0.27660000195709034 -3.2955410025308343 0.0
C_f 0.6103160000079801 -1.9627990003585178 0.0
C_g -0.34819400077912716 -0.8893029986516443 0.0
C_h 0.0 0.44131100203631646 0.0
C_i -0.9456049984846748 1.5250140013287934 0.0
C_j -0.5837860021820497 2.8524229979061544 0.0
C_k -1.5159250017279444 3.9479510017318074 0.0
C_l -1.1372629986153835 5.270107999161623 0.0
C_m -2.0506620021783046 6.382867002528075 0.0
C_n -1.644438999988493 7.694968997942507 0.0
C_o -2.523165000348833 8.836908002186938 0.0
C_p -2.048411998888029 10.121828000534174 0.0
Charge=7 Atoms=2
N_a -2.8041959988864313 11.262344999778092 0.0
N_b 2.7078260024374066 -9.054929002399435 0.0
Charge=8 Atoms=2
O_a 2.323730000259234 -10.230869002414845 0.0
O_b 3.8840309985246044 -8.68481800029295 0.0
Charge=1 Atoms=18
H_a 0.6520620016836924 -8.487247000469075 0.0
H_b 3.0029160011878337 -6.440803001043983 0.0
H_c -0.1199049994321818 -5.991733001657485 0.0
H_d 2.3134169978947887 -4.069848998958359 0.0
H_e -0.7863270026179043 -3.5764360025252904 0.0
H_f 1.676177001168674 -1.6897610013336615 0.0
H_g -1.4149200003001545 -1.1563959986374055 0.0
H_h 1.0690499976606709 0.702059998074365 0.0
H_i -2.0153140016928814 1.2696639992838707 0.0
H_j 0.4883619999572235 3.1008549974829505 0.0
H_k -2.588692998470783 3.705754000889098 0.0
H_l -0.061098001686370085 5.5019949980746725 0.0
H_m -3.127446999002655 6.160261999436378 0.0
H_n -0.5619530024451147 7.897245002306574 0.0
H_o -3.6077729985069977 8.662572999055104 0.0
H_p -0.9650279982016882 10.295662999994963 0.0
H_q -3.8139179973785255 11.215004002162194 0.0
H_r -2.3715529989374713 12.17301699971304 0.0


       *******************************************************************
       *********** Output from DALTON general input processing ***********
       *******************************************************************

 --------------------------------------------------------------------------------
   Overall default print level:    0
   Print level for DALTON.STAT:    1

    Parallel calculation using MPI
    AO-direct calculation (in sections where implemented)
    HERMIT 1- and 2-electron integral sections will be executed
    "Old" integral transformation used (limited to max 255 basis functions)
    Wave function sections will be executed (SIRIUS module)
    Dynamic molecular response properties section will be executed (RESPONSE module)
 --------------------------------------------------------------------------------


   ****************************************************************************
   *************** Output of molecule and basis set information ***************
   ****************************************************************************


    The two title cards from your ".mol" input:
    ------------------------------------------------------------------------
 1: blah                                                                    
 2: blah                                                                    
    ------------------------------------------------------------------------

  Coordinates are entered in Angstrom and converted to atomic units.
          - Conversion factor : 1 bohr = 0.52917721 A

  Atomic type no.    1
  --------------------
  Nuclear charge:   6.00000
  Number of symmetry independent centers:   16
  Number of basis sets to read;    2
  Basis set file used for this atomic type with Z =   6 :
     "/gpfs/projects/rjh/adrian/dalton/build/basis/aug-cc-pVQZ"

  Atomic type no.    2
  --------------------
  Nuclear charge:   7.00000
  Number of symmetry independent centers:    2
  Number of basis sets to read;    2
  Basis set file used for this atomic type with Z =   7 :
     "/gpfs/projects/rjh/adrian/dalton/build/basis/aug-cc-pVQZ"

  Atomic type no.    3
  --------------------
  Nuclear charge:   8.00000
  Number of symmetry independent centers:    2
  Number of basis sets to read;    2
  Basis set file used for this atomic type with Z =   8 :
     "/gpfs/projects/rjh/adrian/dalton/build/basis/aug-cc-pVQZ"

  Atomic type no.    4
  --------------------
  Nuclear charge:   1.00000
  Number of symmetry independent centers:   18
  Number of basis sets to read;    2
  Basis set file used for this atomic type with Z =   1 :
     "/gpfs/projects/rjh/adrian/dalton/build/basis/aug-cc-pVQZ"


                         SYMGRP: Point group information
                         -------------------------------

@    Point group: C1 


                                 Isotopic Masses
                                 ---------------

                           C_a        12.000000
                           C_b        12.000000
                           C_c        12.000000
                           C_d        12.000000
                           C_e        12.000000
                           C_f        12.000000
                           C_g        12.000000
                           C_h        12.000000
                           C_i        12.000000
                           C_j        12.000000
                           C_k        12.000000
                           C_l        12.000000
                           C_m        12.000000
                           C_n        12.000000
                           C_o        12.000000
                           C_p        12.000000
                           N_a        14.003074
                           N_b        14.003074
                           O_a        15.994915
                           O_b        15.994915
                           H_a         1.007825
                           H_b         1.007825
                           H_c         1.007825
                           H_d         1.007825
                           H_e         1.007825
                           H_f         1.007825
                           H_g         1.007825
                           H_h         1.007825
                           H_i         1.007825
                           H_j         1.007825
                           H_k         1.007825
                           H_l         1.007825
                           H_m         1.007825
                           H_n         1.007825
                           H_o         1.007825
                           H_p         1.007825
                           H_q         1.007825
                           H_r         1.007825

                       Total mass:   270.136828 amu
                       Natural abundance:  82.539 %

 Center-of-mass coordinates (a.u.):    0.084675   -0.271854    0.000000
 Center-of-mass coordinates (Angs):    0.044808   -0.143859    0.000000


  Atoms and basis sets
  --------------------

  Number of atom types :    4
  Total number of atoms:   38

  Basis set used is "aug-cc-pVQZ" from the basis set library.

  label    atoms   charge   prim   cont     basis
  ----------------------------------------------------------------------
  C_         16    6.0000    93    80      [13s7p4d3f2g|6s5p4d3f2g]                           
  N_          2    7.0000    93    80      [13s7p4d3f2g|6s5p4d3f2g]                           
  O_          2    8.0000    93    80      [13s7p4d3f2g|6s5p4d3f2g]                           
  H_         18    1.0000    48    46      [7s4p3d2f|5s4p3d2f]                                
  ----------------------------------------------------------------------
  total:     38  144.0000  2724  2428
  ----------------------------------------------------------------------
  Spherical harmonic basis used.

  Threshold for neglecting AO integrals:  1.00D-12

  Max    interatomic separation is   22.8906 Angstrom (   43.2570 Bohr)
  between atoms   38 and   19, "H_r   " and "O_a   ".

  Min HX interatomic separation is    1.0082 Angstrom (    1.9053 Bohr)

  Min YX interatomic separation is    1.2331 Angstrom (    2.3301 Bohr)


  Bond distances (Angstrom):
  --------------------------

                  atom 1     atom 2       distance
                  ------     ------       --------
  bond distance:  C_b        C_a          1.353098
  bond distance:  C_c        C_b          1.446158
  bond distance:  C_d        C_c          1.370433
  bond distance:  C_e        C_d          1.441478
  bond distance:  C_f        C_e          1.373888
  bond distance:  C_g        C_f          1.439144
  bond distance:  C_h        C_g          1.375417
  bond distance:  C_i        C_h          1.438256
  bond distance:  C_j        C_i          1.375837
  bond distance:  C_k        C_j          1.438424
  bond distance:  C_l        C_k          1.375312
  bond distance:  C_m        C_l          1.439629
  bond distance:  C_n        C_m          1.373546
  bond distance:  C_o        C_n          1.440897
  bond distance:  C_p        C_o          1.369821
  bond distance:  N_a        C_p          1.368206
  bond distance:  N_b        C_a          1.458243
  bond distance:  O_a        N_b          1.237079
  bond distance:  O_b        N_b          1.233061
  bond distance:  H_a        C_a          1.091618
  bond distance:  H_b        C_b          1.096749
  bond distance:  H_c        C_c          1.098486
  bond distance:  H_d        C_d          1.099997
  bond distance:  H_e        C_e          1.099416
  bond distance:  H_f        C_f          1.100277
  bond distance:  H_g        C_g          1.099656
  bond distance:  H_h        C_h          1.100390
  bond distance:  H_i        C_i          1.099764
  bond distance:  H_j        C_j          1.100554
  bond distance:  H_k        C_k          1.099768
  bond distance:  H_l        C_l          1.100865
  bond distance:  H_m        C_m          1.099554
  bond distance:  H_n        C_n          1.101223
  bond distance:  H_o        C_o          1.098530
  bond distance:  H_p        C_p          1.097242
  bond distance:  H_q        N_a          1.010831
  bond distance:  H_r        N_a          1.008218


  Bond angles (degrees):
  ----------------------

                  atom 1     atom 2     atom 3         angle
                  ------     ------     ------         -----
  bond angle:     C_b        C_a        N_b          121.121
  bond angle:     C_b        C_a        H_a          126.146
  bond angle:     N_b        C_a        H_a          112.734
  bond angle:     C_a        C_b        C_c          123.334
  bond angle:     C_a        C_b        H_b          117.671
  bond angle:     C_c        C_b        H_b          118.996
  bond angle:     C_b        C_c        C_d          122.530
  bond angle:     C_b        C_c        H_c          118.290
  bond angle:     C_d        C_c        H_c          119.180
  bond angle:     C_c        C_d        C_e          124.147
  bond angle:     C_c        C_d        H_d          118.434
  bond angle:     C_e        C_d        H_d          117.419
  bond angle:     C_d        C_e        C_f          123.379
  bond angle:     C_d        C_e        H_e          117.761
  bond angle:     C_f        C_e        H_e          118.861
  bond angle:     C_e        C_f        C_g          124.181
  bond angle:     C_e        C_f        H_f          118.426
  bond angle:     C_g        C_f        H_f          117.393
  bond angle:     C_f        C_g        C_h          123.574
  bond angle:     C_f        C_g        H_g          117.704
  bond angle:     C_h        C_g        H_g          118.721
  bond angle:     C_g        C_h        C_i          124.229
  bond angle:     C_g        C_h        H_h          118.372
  bond angle:     C_i        C_h        H_h          117.400
  bond angle:     C_h        C_i        C_j          123.646
  bond angle:     C_h        C_i        H_i          117.681
  bond angle:     C_j        C_i        H_i          118.673
  bond angle:     C_i        C_j        C_k          124.360
  bond angle:     C_i        C_j        H_j          118.293
  bond angle:     C_k        C_j        H_j          117.347
  bond angle:     C_j        C_k        C_l          123.625
  bond angle:     C_j        C_k        H_k          117.671
  bond angle:     C_l        C_k        H_k          118.704
  bond angle:     C_k        C_l        C_m          124.638
  bond angle:     C_k        C_l        H_l          118.141
  bond angle:     C_m        C_l        H_l          117.221
  bond angle:     C_l        C_m        C_n          123.417
  bond angle:     C_l        C_m        H_m          117.700
  bond angle:     C_n        C_m        H_m          118.883
  bond angle:     C_m        C_n        C_o          125.219
  bond angle:     C_m        C_n        H_n          117.787
  bond angle:     C_o        C_n        H_n          116.994
  bond angle:     C_n        C_o        C_p          122.143
  bond angle:     C_n        C_o        H_o          118.447
  bond angle:     C_p        C_o        H_o          119.410
  bond angle:     C_o        C_p        N_a          126.191
  bond angle:     C_o        C_p        H_p          119.394
  bond angle:     N_a        C_p        H_p          114.415
  bond angle:     C_p        N_a        H_q          120.847
  bond angle:     C_p        N_a        H_r          121.057
  bond angle:     H_q        N_a        H_r          118.096
  bond angle:     C_a        N_b        O_a          115.518
  bond angle:     C_a        N_b        O_b          118.926
  bond angle:     O_a        N_b        O_b          125.556




 Principal moments of inertia (u*A**2) and principal axes
 --------------------------------------------------------

   IA     106.400601         -0.256912    0.966435    0.000000
   IB   13629.472743          0.966435    0.256912    0.000000
   IC   13735.873344          0.000000    0.000000    1.000000


 Rotational constants
 --------------------

@    The molecule is planar.

               A                   B                   C

           4749.7759             37.0799             36.7926 MHz
            0.158435            0.001237            0.001227 cm-1


@  Nuclear repulsion energy : 1124.842995138595 Hartree


                     .---------------------------------------.
                     | Starting in Integral Section (HERMIT) |
                     `---------------------------------------'



 ***************************************************************************************
 ****************** Output from **INTEGRALS input processing (HERMIT) ******************
 ***************************************************************************************


 - Using defaults, no **INTEGRALS input found

 Default print level:        1

 Calculation of one-electron Hamiltonian integrals.

 Center of mass  (bohr):      0.084675424180     -0.271853977243      0.000000000000
 Operator center (bohr):      0.000000000000      0.000000000000      0.000000000000
 Gauge origin    (bohr):      0.000000000000      0.000000000000      0.000000000000
 Dipole origin   (bohr):      0.000000000000      0.000000000000      0.000000000000


     ************************************************************************
     ************************** Output from HERINT **************************
     ************************************************************************



                      Nuclear contribution to dipole moments
                      --------------------------------------

                 au               Debye          C m (/(10**-30)

      x      0.00000567         0.00001441         0.00004807
      y     -0.00000199        -0.00000506        -0.00001687
      z      0.00000000         0.00000000         0.00000000


  Time used in ONEDRV     is       8.75 seconds
  Time used in HUCKEL     is       2.07 seconds
  Time used in OVERLAP    is       1.16 seconds
  Time used in POPOVLP    is       2.25 seconds
  Time used in R2         is       1.40 seconds
  Time used in R4         is       1.66 seconds
  Time used in DIPLEN     is       2.36 seconds
  Time used in QUADRUP    is       4.74 seconds
  Time used in KINENE     is       1.76 seconds
  Time used in GABGEN     is      25.70 seconds
  Total CPU  time used in HERMIT:  51.85 seconds
  Total wall time used in HERMIT:  52.12 seconds


                        .----------------------------------.
                        | End of Integral Section (HERMIT) |
                        `----------------------------------'



                   .--------------------------------------------.
                   | Starting in Wave Function Section (SIRIUS) |
                   `--------------------------------------------'



@ Primary orbitals are deleted during canonical orthonormalization
@   because of detected numerical linear dependence or too large coefficients.
@ Eigenvalue threshold for num. lin. dep. =  1.00D-06

@  27 MO components are deleted in symmetry    1
 Overlap eigenvalues of the deleted orbitals:
  9.94D-07  9.49D-07  9.10D-07  8.41D-07  8.26D-07
  7.54D-07  7.29D-07  6.97D-07  6.53D-07  5.88D-07
  5.52D-07  5.51D-07  5.35D-07  4.92D-07  4.64D-07
  4.24D-07  3.81D-07  3.50D-07  3.36D-07  3.26D-07
  2.41D-07  2.25D-07  1.95D-07  1.68D-07  1.22D-07
  9.29D-08  2.92D-08

 Max MO coeff. of last deleted MO & limit:  2.87D+02  1.00D+03

WARNING: Orbitals have been deleted because of numerical
   linear dependence although not requested in input.

 *** Output from Huckel module :

     Using EWMO model:          T
     Using EHT  model:          F
     Number of Huckel orbitals each symmetry:  118

 EWMO - Energy Weighted Maximum Overlap - is a Huckel type method,
        which normally is better than Extended Huckel Theory.
 Reference: Linderberg and Ohrn, Propagators in Quantum Chemistry (Wiley, 1973)

 Huckel EWMO eigenvalues for symmetry :  1
          -20.684752     -20.683494     -15.677079     -15.674967     -11.359307
          -11.359266     -11.358906     -11.358593     -11.357325     -11.355507
          -11.353426     -11.351440     -11.348398     -11.347250     -11.346283
          -11.345667     -11.345449     -11.345400     -11.345246     -11.345227
           -1.964065      -1.791926      -1.782678      -1.755573      -1.701620
           -1.617914      -1.510222      -1.444708      -1.381225      -1.253330
           -1.201590      -1.154517      -1.127543      -1.083590      -1.015880
           -0.988337      -0.927502      -0.887204      -0.852017      -0.846774
           -0.822695      -0.776281      -0.748511      -0.742719      -0.741154
           -0.691295      -0.685733      -0.664159      -0.634185      -0.633128
           -0.606804      -0.586000      -0.583835      -0.570952      -0.552233
           -0.539569      -0.520624      -0.513914      -0.510557      -0.496194
           -0.493338      -0.486689      -0.484633      -0.477852      -0.476338
           -0.474917      -0.453982      -0.434481      -0.404414      -0.395254
           -0.368300      -0.363568      -0.335252      -0.295149      -0.266773
           -0.243802      -0.229156      -0.226082      -0.213043      -0.203946
           -0.200991      -0.198050      -0.194756      -0.190554      -0.166609
           -0.142744      -0.138877      -0.133593      -0.131413      -0.131078
           -0.129945      -0.129497      -0.129429      -0.128444      -0.127646
           -0.127087      -0.126593      -0.126145      -0.125008      -0.124537
           -0.123965      -0.123214      -0.111649      -0.109435      -0.105607
           -0.102379      -0.098860      -0.095905      -0.092761      -0.091358
           -0.088590      -0.087964      -0.086082      -0.085619      -0.084136
           -0.082272      -0.080515      -0.079387

 **********************************************************************
 *SIRIUS* a direct, restricted step, second order MCSCF program       *
 **********************************************************************

 
     Date and time (Linux)  : Wed May 28 21:27:02 2025
     Host name              : xm009                                   

 Title lines from ".mol" input file:
     blah                                                                    
     blah                                                                    

 Print level on unit LUPRI =   2 is   0
 Print level on unit LUW4  =   2 is   5

@    Restricted, closed shell Hartree-Fock calculation.

@    Time-dependent Hartree-Fock calculation (random phase approximation).
 Fock matrices are calculated directly and in parallel without use of integrals on disk.

 Initial molecular orbitals are obtained according to
 ".MOSTART EWMO  " input option

     Wave function specification
     ============================
@    Wave function type        --- HF ---
@    Number of closed shell electrons         144
@    Number of electrons in active shells       0
@    Total charge of the molecule               0

@    Spin multiplicity and 2 M_S                1         0
@    Total number of symmetries                 1 (point group: C1 )
@    Reference state symmetry                   1 (irrep name : A  )

     Orbital specifications
     ======================
@    Abelian symmetry species          All |    1
@                                          |  A  
                                       --- |  ---
@    Occupied SCF orbitals              72 |   72
@    Secondary orbitals               2329 | 2329
@    Total number of orbitals         2401 | 2401
@    Number of basis functions        2428 | 2428

     Optimization information
     ========================
@    Number of configurations                 1
@    Number of orbital rotations         167688
     ------------------------------------------
@    Total number of variables           167689

     Maximum number of Fock   iterations      0
     Maximum number of DIIS   iterations     60
     Maximum number of QC-SCF iterations     60
     Threshold for SCF convergence     1.00D-05

    INFORMATION: Switched to "new" integral transformation (from 1988 ;-) )
    because more than 255 basis functions.


 ***********************************************
 ***** DIIS acceleration of SCF iterations *****
 ***********************************************

 C1-DIIS algorithm; max error vectors =    8

 Iter      Total energy        Error norm    Delta(E)  DIIS dim.
 -----------------------------------------------------------------------------
   1  Screening settings (-IFTHRS, JTDIIS, DIFDEN, times)  -10    1    T  1.58D+02  1.58D+02
@  1    -871.684534139        7.54266D+00   -8.72D+02    1
      Virial theorem: -V/T =      2.009917
@    MULPOP   C_a     0.11; C_b    -0.28; C_c    -0.28; C_d    -0.22; C_e    -0.40; C_f    -0.26; C_g    -0.36; C_h    -0.27; C_i    -0.39; C_j    -0.27; 
@             C_k    -0.36; C_l    -0.27; C_m    -0.45; C_n    -0.18; C_o    -0.57; C_p     0.47; N_a    -1.26; N_b     1.78; O_a    -1.74; O_b    -1.68; 
@             H_a     0.48; H_b     0.50; H_c     0.44; H_d     0.28; H_e     0.36; H_f     0.32; H_g     0.36; H_h     0.36; H_i     0.36; H_j     0.34; 
@    MULPOP    dipole moment & components:     26.6635;       -9.7248     24.8268      0.0000
   1  Level shift: doubly occupied orbital energies shifted by -2.00D-01
 -----------------------------------------------------------------------------
   2  Screening settings (-IFTHRS, JTDIIS, DIFDEN, times)  -10    2    T  1.59D+02  1.59D+02
@  2    -874.606814475        2.97529D+00   -2.92D+00    2
      Virial theorem: -V/T =      2.000755
@    MULPOP   C_a    -0.54; C_b    -0.41; C_c    -0.42; C_d    -0.29; C_e    -0.38; C_f    -0.31; C_g    -0.36; C_h    -0.31; C_i    -0.36; C_j    -0.31; 
@             C_k    -0.33; C_l    -0.30; C_m    -0.38; C_n    -0.31; C_o    -0.55; C_p    -0.09; N_a    -0.93; N_b     0.20; O_a    -0.21; O_b    -0.35; 
@             H_a     0.54; H_b     0.50; H_c     0.40; H_d     0.34; H_e     0.35; H_f     0.34; H_g     0.34; H_h     0.35; H_i     0.32; H_j     0.34; 
@    MULPOP    dipole moment & components:      9.9536;       -2.9865      9.4949      0.0000
   2  Level shift: doubly occupied orbital energies shifted by -1.00D-01
 -----------------------------------------------------------------------------
   3  Screening settings (-IFTHRS, JTDIIS, DIFDEN, times)  -10    3    T  1.53D+02  1.53D+02
@  3    -875.037421713        9.77510D-01   -4.31D-01    3
      Virial theorem: -V/T =      2.001357
@    MULPOP   C_a    -0.31; C_b    -0.33; C_c    -0.34; C_d    -0.22; C_e    -0.33; C_f    -0.23; C_g    -0.29; C_h    -0.26; C_i    -0.30; C_j    -0.24; 
@             C_k    -0.28; C_l    -0.24; C_m    -0.35; C_n    -0.27; C_o    -0.54; C_p    -0.05; N_a    -0.79; N_b     0.81; O_a    -0.70; O_b    -0.67; 
@             H_a     0.51; H_b     0.45; H_c     0.35; H_d     0.27; H_e     0.29; H_f     0.28; H_g     0.28; H_h     0.29; H_i     0.27; H_j     0.29; 
@    MULPOP    dipole moment & components:      9.2880;       -3.3041      8.6805      0.0000
   3  Level shift: doubly occupied orbital energies shifted by -5.00D-02
 -----------------------------------------------------------------------------
   4  Screening settings (-IFTHRS, JTDIIS, DIFDEN, times)  -10    4    T  1.49D+02  1.49D+02
@  4    -875.095406088        2.77115D-01   -5.80D-02    4
      Virial theorem: -V/T =      2.003137
@    MULPOP   C_a    -0.43; C_b    -0.31; C_c    -0.34; C_d    -0.16; C_e    -0.30; C_f    -0.19; C_g    -0.26; C_h    -0.22; C_i    -0.27; C_j    -0.21; 
@             C_k    -0.25; C_l    -0.21; C_m    -0.31; C_n    -0.25; C_o    -0.52; C_p    -0.05; N_a    -0.73; N_b     0.65; O_a    -0.56; O_b    -0.61; 
@             H_a     0.54; H_b     0.45; H_c     0.34; H_d     0.25; H_e     0.27; H_f     0.25; H_g     0.26; H_h     0.26; H_i     0.24; H_j     0.26; 
@    MULPOP    dipole moment & components:      8.6073;       -3.0799      8.0374      0.0000
   4  Level shift: doubly occupied orbital energies shifted by -2.50D-02
 -----------------------------------------------------------------------------
   5  Screening settings (-IFTHRS, JTDIIS, DIFDEN, times)  -14    5    F  1.84D+02  1.85D+02
@  5    -875.106534133        1.16253D-01   -1.11D-02    5
      Virial theorem: -V/T =      2.002456
@    MULPOP   C_a    -0.40; C_b    -0.33; C_c    -0.35; C_d    -0.19; C_e    -0.31; C_f    -0.20; C_g    -0.26; C_h    -0.22; C_i    -0.27; C_j    -0.22; 
@             C_k    -0.25; C_l    -0.21; C_m    -0.31; C_n    -0.27; C_o    -0.52; C_p    -0.06; N_a    -0.73; N_b     0.69; O_a    -0.60; O_b    -0.60; 
@             H_a     0.54; H_b     0.46; H_c     0.34; H_d     0.26; H_e     0.27; H_f     0.26; H_g     0.26; H_h     0.26; H_i     0.24; H_j     0.26; 
@    MULPOP    dipole moment & components:      7.9698;       -2.8521      7.4420      0.0000
   5  Level shift: doubly occupied orbital energies shifted by -1.25D-02
 -----------------------------------------------------------------------------
   6  Screening settings (-IFTHRS, JTDIIS, DIFDEN, times)  -14    6    T  1.76D+02  1.76D+02
@  6    -875.109672032        5.87369D-02   -3.14D-03    6
      Virial theorem: -V/T =      2.002332
@    MULPOP   C_a    -0.41; C_b    -0.33; C_c    -0.34; C_d    -0.18; C_e    -0.30; C_f    -0.20; C_g    -0.26; C_h    -0.23; C_i    -0.27; C_j    -0.22; 
@             C_k    -0.25; C_l    -0.21; C_m    -0.32; C_n    -0.27; C_o    -0.52; C_p    -0.06; N_a    -0.74; N_b     0.68; O_a    -0.58; O_b    -0.61; 
@             H_a     0.54; H_b     0.46; H_c     0.34; H_d     0.26; H_e     0.27; H_f     0.26; H_g     0.26; H_h     0.26; H_i     0.25; H_j     0.27; 
@    MULPOP    dipole moment & components:      7.6495;       -2.7991      7.1190      0.0000
   6  Level shift: doubly occupied orbital energies shifted by -1.25D-02
 -----------------------------------------------------------------------------
   7  Screening settings (-IFTHRS, JTDIIS, DIFDEN, times)  -14    7    T  1.73D+02  1.74D+02
@  7    -875.110633909        2.82574D-02   -9.62D-04    7
      Virial theorem: -V/T =      2.002372
@    MULPOP   C_a    -0.41; C_b    -0.33; C_c    -0.35; C_d    -0.18; C_e    -0.31; C_f    -0.20; C_g    -0.26; C_h    -0.23; C_i    -0.27; C_j    -0.22; 
@             C_k    -0.25; C_l    -0.21; C_m    -0.31; C_n    -0.27; C_o    -0.52; C_p    -0.06; N_a    -0.74; N_b     0.68; O_a    -0.59; O_b    -0.60; 
@             H_a     0.55; H_b     0.47; H_c     0.34; H_d     0.26; H_e     0.27; H_f     0.26; H_g     0.26; H_h     0.26; H_i     0.24; H_j     0.26; 
@    MULPOP    dipole moment & components:      7.4420;       -2.7177      6.9280      0.0000
 -----------------------------------------------------------------------------
   8  Screening settings (-IFTHRS, JTDIIS, DIFDEN, times)  -14    8    T  1.72D+02  1.72D+02
@  8    -875.110876324        1.22313D-02   -2.42D-04    8
      Virial theorem: -V/T =      2.002364
@    MULPOP   C_a    -0.40; C_b    -0.33; C_c    -0.34; C_d    -0.18; C_e    -0.30; C_f    -0.20; C_g    -0.26; C_h    -0.23; C_i    -0.27; C_j    -0.22; 
@             C_k    -0.25; C_l    -0.21; C_m    -0.31; C_n    -0.28; C_o    -0.52; C_p    -0.06; N_a    -0.74; N_b     0.69; O_a    -0.59; O_b    -0.60; 
@             H_a     0.55; H_b     0.47; H_c     0.34; H_d     0.26; H_e     0.27; H_f     0.26; H_g     0.26; H_h     0.26; H_i     0.24; H_j     0.26; 
@    MULPOP    dipole moment & components:      7.2635;       -2.6900      6.7471      0.0000
 -----------------------------------------------------------------------------
   9  Screening settings (-IFTHRS, JTDIIS, DIFDEN, times)  -14    9    T  1.68D+02  1.69D+02
@  9    -875.110910731        4.78492D-03   -3.44D-05    8
      Virial theorem: -V/T =      2.002354
@    MULPOP   C_a    -0.41; C_b    -0.33; C_c    -0.34; C_d    -0.18; C_e    -0.30; C_f    -0.20; C_g    -0.26; C_h    -0.23; C_i    -0.27; C_j    -0.22; 
@             C_k    -0.25; C_l    -0.21; C_m    -0.31; C_n    -0.28; C_o    -0.52; C_p    -0.06; N_a    -0.74; N_b     0.69; O_a    -0.59; O_b    -0.60; 
@             H_a     0.55; H_b     0.47; H_c     0.34; H_d     0.26; H_e     0.27; H_f     0.26; H_g     0.26; H_h     0.26; H_i     0.24; H_j     0.26; 
@    MULPOP    dipole moment & components:      7.1880;       -2.6694      6.6740      0.0000
 -----------------------------------------------------------------------------
  10  Screening settings (-IFTHRS, JTDIIS, DIFDEN, times)  -14   10    T  1.66D+02  1.66D+02
@ 10    -875.110919069        2.67260D-03   -8.34D-06    8
      Virial theorem: -V/T =      2.002355
@    MULPOP   C_a    -0.41; C_b    -0.33; C_c    -0.34; C_d    -0.18; C_e    -0.30; C_f    -0.20; C_g    -0.26; C_h    -0.23; C_i    -0.27; C_j    -0.22; 
@             C_k    -0.25; C_l    -0.21; C_m    -0.31; C_n    -0.28; C_o    -0.52; C_p    -0.07; N_a    -0.74; N_b     0.69; O_a    -0.59; O_b    -0.60; 
@             H_a     0.55; H_b     0.47; H_c     0.34; H_d     0.26; H_e     0.27; H_f     0.26; H_g     0.26; H_h     0.26; H_i     0.24; H_j     0.26; 
@    MULPOP    dipole moment & components:      7.1338;       -2.6621      6.6184      0.0000
 -----------------------------------------------------------------------------
  11  Screening settings (-IFTHRS, JTDIIS, DIFDEN, times)  -14   11    T  1.63D+02  1.64D+02
@ 11    -875.110922217        1.61914D-03   -3.15D-06    8
      Virial theorem: -V/T =      2.002356
@    MULPOP   C_a    -0.41; C_b    -0.33; C_c    -0.34; C_d    -0.18; C_e    -0.30; C_f    -0.20; C_g    -0.26; C_h    -0.23; C_i    -0.27; C_j    -0.22; 
@             C_k    -0.25; C_l    -0.21; C_m    -0.31; C_n    -0.28; C_o    -0.52; C_p    -0.07; N_a    -0.74; N_b     0.69; O_a    -0.59; O_b    -0.60; 
@             H_a     0.55; H_b     0.47; H_c     0.34; H_d     0.26; H_e     0.27; H_f     0.26; H_g     0.26; H_h     0.26; H_i     0.24; H_j     0.26; 
@    MULPOP    dipole moment & components:      7.0954;       -2.6578      6.5789      0.0000
 -----------------------------------------------------------------------------
  12  Screening settings (-IFTHRS, JTDIIS, DIFDEN, times)  -14   12    T  1.63D+02  1.63D+02
@ 12    -875.110923399        5.45307D-04   -1.18D-06    8
      Virial theorem: -V/T =      2.002355
@    MULPOP   C_a    -0.41; C_b    -0.33; C_c    -0.34; C_d    -0.18; C_e    -0.30; C_f    -0.20; C_g    -0.26; C_h    -0.23; C_i    -0.27; C_j    -0.22; 
@             C_k    -0.25; C_l    -0.21; C_m    -0.31; C_n    -0.28; C_o    -0.52; C_p    -0.07; N_a    -0.74; N_b     0.69; O_a    -0.59; O_b    -0.60; 
@             H_a     0.55; H_b     0.47; H_c     0.34; H_d     0.26; H_e     0.27; H_f     0.26; H_g     0.26; H_h     0.26; H_i     0.24; H_j     0.26; 
@    MULPOP    dipole moment & components:      7.0652;       -2.6548      6.5474      0.0000
 -----------------------------------------------------------------------------
  13  Screening settings (-IFTHRS, JTDIIS, DIFDEN, times)  -14   13    T  1.59D+02  1.60D+02
@ 13    -875.110923540        2.16589D-04   -1.41D-07    8
      Virial theorem: -V/T =      2.002355
@    MULPOP   C_a    -0.41; C_b    -0.33; C_c    -0.34; C_d    -0.18; C_e    -0.30; C_f    -0.20; C_g    -0.26; C_h    -0.23; C_i    -0.27; C_j    -0.22; 
@             C_k    -0.25; C_l    -0.21; C_m    -0.31; C_n    -0.28; C_o    -0.52; C_p    -0.07; N_a    -0.74; N_b     0.69; O_a    -0.59; O_b    -0.60; 
@             H_a     0.55; H_b     0.47; H_c     0.34; H_d     0.26; H_e     0.27; H_f     0.26; H_g     0.26; H_h     0.26; H_i     0.24; H_j     0.26; 
@    MULPOP    dipole moment & components:      7.0540;       -2.6541      6.5356      0.0000
 -----------------------------------------------------------------------------
  14  Screening settings (-IFTHRS, JTDIIS, DIFDEN, times)  -14   14    T  1.54D+02  1.55D+02
@ 14    -875.110923550        9.14834D-05   -1.04D-08    8
      Virial theorem: -V/T =      2.002355
@    MULPOP   C_a    -0.41; C_b    -0.33; C_c    -0.34; C_d    -0.18; C_e    -0.30; C_f    -0.20; C_g    -0.26; C_h    -0.23; C_i    -0.27; C_j    -0.22; 
@             C_k    -0.25; C_l    -0.21; C_m    -0.31; C_n    -0.28; C_o    -0.52; C_p    -0.07; N_a    -0.74; N_b     0.69; O_a    -0.59; O_b    -0.60; 
@             H_a     0.55; H_b     0.47; H_c     0.34; H_d     0.26; H_e     0.27; H_f     0.26; H_g     0.26; H_h     0.26; H_i     0.24; H_j     0.26; 
@    MULPOP    dipole moment & components:      7.0522;       -2.6540      6.5337      0.0000
 -----------------------------------------------------------------------------
  15  Screening settings (-IFTHRS, JTDIIS, DIFDEN, times)  -14   15    T  1.51D+02  1.52D+02
@ 15    -875.110923552        3.92628D-05   -2.00D-09    8
      Virial theorem: -V/T =      2.002355
@    MULPOP   C_a    -0.41; C_b    -0.33; C_c    -0.34; C_d    -0.18; C_e    -0.30; C_f    -0.20; C_g    -0.26; C_h    -0.23; C_i    -0.27; C_j    -0.22; 
@             C_k    -0.25; C_l    -0.21; C_m    -0.31; C_n    -0.28; C_o    -0.52; C_p    -0.07; N_a    -0.74; N_b     0.69; O_a    -0.58; O_b    -0.60; 
@             H_a     0.55; H_b     0.47; H_c     0.34; H_d     0.26; H_e     0.27; H_f     0.26; H_g     0.26; H_h     0.26; H_i     0.24; H_j     0.26; 
@    MULPOP    dipole moment & components:      7.0513;       -2.6540      6.5328      0.0000
 -----------------------------------------------------------------------------
  16  Screening settings (-IFTHRS, JTDIIS, DIFDEN, times)  -14   16    T  1.49D+02  1.50D+02
@ 16    -875.110923553        1.86598D-05   -2.45D-10    8
      Virial theorem: -V/T =      2.002355
@    MULPOP   C_a    -0.41; C_b    -0.33; C_c    -0.34; C_d    -0.18; C_e    -0.30; C_f    -0.20; C_g    -0.26; C_h    -0.23; C_i    -0.27; C_j    -0.22; 
@             C_k    -0.25; C_l    -0.21; C_m    -0.31; C_n    -0.28; C_o    -0.52; C_p    -0.07; N_a    -0.74; N_b     0.69; O_a    -0.58; O_b    -0.60; 
@             H_a     0.55; H_b     0.47; H_c     0.34; H_d     0.26; H_e     0.27; H_f     0.26; H_g     0.26; H_h     0.26; H_i     0.24; H_j     0.26; 
@    MULPOP    dipole moment & components:      7.0512;       -2.6539      6.5327      0.0000
 -----------------------------------------------------------------------------
  17  Screening settings (-IFTHRS, JTDIIS, DIFDEN, times)  -14   17    T  1.52D+02  1.53D+02
@ 17    -875.110923553        1.13278D-05   -6.34D-11    8
      Virial theorem: -V/T =      2.002355
@    MULPOP   C_a    -0.41; C_b    -0.33; C_c    -0.34; C_d    -0.18; C_e    -0.30; C_f    -0.20; C_g    -0.26; C_h    -0.23; C_i    -0.27; C_j    -0.22; 
@             C_k    -0.25; C_l    -0.21; C_m    -0.31; C_n    -0.28; C_o    -0.52; C_p    -0.07; N_a    -0.74; N_b     0.69; O_a    -0.58; O_b    -0.60; 
@             H_a     0.55; H_b     0.47; H_c     0.34; H_d     0.26; H_e     0.27; H_f     0.26; H_g     0.26; H_h     0.26; H_i     0.24; H_j     0.26; 
@    MULPOP    dipole moment & components:      7.0511;       -2.6539      6.5326      0.0000
 -----------------------------------------------------------------------------
  18  Screening settings (-IFTHRS, JTDIIS, DIFDEN, times)  -14   18    T  1.50D+02  1.51D+02
@ 18    -875.110923553        5.29970D-06   -2.73D-11    8

@ *** DIIS converged in  18 iterations !
@     Converged SCF energy, gradient:   -875.110923552643    5.30D-06
    - total time used in SIRFCK :              0.00 seconds


 *** SCF orbital energy analysis ***

 Only the 20 lowest virtual orbital energies printed in each symmetry.

 Number of electrons :  144
 Orbital occupations :   72

 Sym       Hartree-Fock orbital energies

1 A     -20.58260876   -20.57975585   -15.83398233   -15.59406426   -11.30581163
        -11.28615805   -11.28439244   -11.27524026   -11.26706044   -11.26100986
        -11.25674235   -11.25634454   -11.25524066   -11.25339241   -11.25008667
        -11.24625617   -11.24198866   -11.23714257   -11.23190319   -11.22919798
         -1.57465561    -1.37259871    -1.24058313    -1.14030988    -1.12386637
         -1.11060795    -1.09268928    -1.06887054    -1.03976418    -1.00592779
         -0.96797804    -0.93535010    -0.87879431    -0.83875070    -0.80606918
         -0.78645863    -0.78063341    -0.77177789    -0.76146352    -0.75761258
         -0.73252972    -0.72100088    -0.70931444    -0.69353421    -0.68468353
         -0.66756077    -0.65757196    -0.64155163    -0.62370459    -0.60714823
         -0.59882069    -0.57484541    -0.56899646    -0.55571500    -0.54034643
         -0.53908830    -0.52860274    -0.52835088    -0.51908582    -0.51162051
         -0.50308979    -0.49611039    -0.47898502    -0.47848976    -0.47600026
         -0.45622526    -0.43709537    -0.42504833    -0.38602291    -0.33990955
         -0.28876093    -0.23768407     0.01133250     0.01154408     0.02004828
          0.02382741     0.02568102     0.02786861     0.03489359     0.03781920
          0.04560666     0.05021229     0.05745603     0.05785187     0.06012390
          0.06496086     0.06510722     0.06881713     0.06980671     0.07184648
          0.07253430     0.07598162

    E(LUMO) :     0.01133250 au (symmetry 1)
  - E(HOMO) :    -0.23768407 au (symmetry 1)
  ------------------------------------------
    gap     :     0.24901656 au

 --- Writing SIRIFC interface file

 CPU and wall time for SCF :    4870.602    4894.651


                       .-----------------------------------.
                       | --- Final results from SIRIUS --- |
                       `-----------------------------------'


@    Spin multiplicity:           1
@    Spatial symmetry:            1 ( irrep  A   in C1  )
@    Total charge of molecule:    0

@    Final HF energy:            -875.110923552643                 
@    Nuclear repulsion:          1124.842995138595
@    Electronic energy:         -1999.953918691238

@    Final gradient norm:           0.000005299698

 
     Date and time (Linux)  : Wed May 28 22:49:07 2025
     Host name              : xm009                                   

File label for MO orbitals:  28May25   FOCKDIIS

 (Only coefficients > 0.0100 are printed.)

 Molecular orbitals for symmetry species 1  (A  )
 ------------------------------------------------

    Orbital        63       64       65       66       67       68       69
   2 C_a :1s     0.0000   0.1055   0.0211  -0.0000  -0.0000   0.0000  -0.0000
   4 C_a :1s     0.0000   0.0337  -0.0384  -0.0000   0.0000  -0.0000   0.0000
   5 C_a :1s     0.0000  -0.0436   0.1107  -0.0000   0.0000   0.0000  -0.0000
   6 C_a :1s    -0.0000  -0.2869  -0.0637   0.0000   0.0000   0.0000  -0.0000
   7 C_a :2px   -0.0000   0.1943   0.1671   0.0000  -0.0000   0.0000  -0.0000
   8 C_a :2py    0.0000  -0.2441  -0.0186  -0.0000  -0.0000   0.0000  -0.0000
   9 C_a :2pz    0.1665  -0.0000  -0.0000   0.2166  -0.0083  -0.2628  -0.2920
  13 C_a :2px    0.0000  -0.0022  -0.0119  -0.0000  -0.0000   0.0000  -0.0000
  14 C_a :2py   -0.0000   0.0453  -0.0591  -0.0000   0.0000   0.0000  -0.0000
  16 C_a :2px   -0.0000  -0.0503  -0.0785   0.0000  -0.0000   0.0000  -0.0000
  17 C_a :2py   -0.0000   0.0015  -0.1386   0.0000  -0.0000  -0.0000  -0.0000
  18 C_a :2pz    0.0031   0.0000  -0.0000   0.0036   0.0049  -0.0082  -0.0101
  19 C_a :2px   -0.0000  -0.0100  -0.0267   0.0000   0.0000  -0.0000  -0.0000
  20 C_a :2py   -0.0000  -0.0660   0.0913   0.0000  -0.0000   0.0000  -0.0000
  21 C_a :2pz    0.0000   0.0000  -0.0000   0.0018   0.0215  -0.0010  -0.0048
  27 C_a :3d2-  -0.0000  -0.0161  -0.0045  -0.0000   0.0000  -0.0000   0.0000
  33 C_a :3d1-   0.0080  -0.0000   0.0000   0.0099   0.0068  -0.0103  -0.0090
  34 C_a :3d0   -0.0000  -0.0020  -0.0101  -0.0000   0.0000  -0.0000  -0.0000
  36 C_a :3d2+   0.0000   0.0329  -0.0202  -0.0000  -0.0000  -0.0000  -0.0000
  37 C_a :3d2-   0.0000   0.0365   0.0458  -0.0000  -0.0000  -0.0000   0.0000
  38 C_a :3d1-   0.0071   0.0000  -0.0000   0.0067   0.0169  -0.0099  -0.0106
  41 C_a :3d2+   0.0000   0.0530  -0.0324  -0.0000   0.0000   0.0000   0.0000
  49 C_a :4f3-  -0.0000  -0.0115   0.0080   0.0000  -0.0000   0.0000  -0.0000
  55 C_a :4f3+  -0.0000  -0.0011  -0.0124  -0.0000  -0.0000   0.0000  -0.0000
  56 C_a :4f3-  -0.0000  -0.0060   0.0136   0.0000   0.0000  -0.0000  -0.0000
  82 C_b :1s     0.0000  -0.0319   0.0480   0.0000   0.0000  -0.0000   0.0000
  84 C_b :1s    -0.0000  -0.0079   0.0641   0.0000  -0.0000   0.0000  -0.0000
  85 C_b :1s     0.0000   0.0648   0.0857   0.0000  -0.0000   0.0000   0.0000
  86 C_b :1s    -0.0000  -0.1305  -0.1253   0.0000   0.0000  -0.0000   0.0000
  87 C_b :2px   -0.0000  -0.0239   0.0706   0.0000  -0.0000   0.0000   0.0000
  88 C_b :2py   -0.0000   0.1598  -0.0290  -0.0000   0.0000  -0.0000   0.0000
  89 C_b :2pz    0.2131  -0.0000  -0.0000   0.2446   0.0011  -0.2453  -0.2084
  93 C_b :2px   -0.0000   0.0268  -0.0183   0.0000  -0.0000  -0.0000  -0.0000
  94 C_b :2py   -0.0000  -0.0113  -0.0134   0.0000   0.0000   0.0000   0.0000
  96 C_b :2px   -0.0000   0.0549  -0.0465   0.0000  -0.0000   0.0000   0.0000
  97 C_b :2py    0.0000  -0.0099   0.0604   0.0000   0.0000  -0.0000  -0.0000
  98 C_b :2pz   -0.0053  -0.0000   0.0000  -0.0042  -0.0144   0.0027  -0.0001
  99 C_b :2px    0.0000   0.0461   0.0714   0.0000  -0.0000   0.0000   0.0000
 100 C_b :2py    0.0000  -0.0437  -0.1123  -0.0000   0.0000  -0.0000   0.0000
 101 C_b :2pz    0.0018  -0.0000   0.0000   0.0019  -0.0272  -0.0061  -0.0063
 112 C_b :3d2-   0.0000   0.0043   0.0108   0.0000  -0.0000   0.0000  -0.0000
 115 C_b :3d1+  -0.0111   0.0000   0.0000  -0.0103   0.0078   0.0113   0.0059
 116 C_b :3d2+   0.0000   0.0197  -0.0037  -0.0000  -0.0000   0.0000  -0.0000
 117 C_b :3d2-   0.0000   0.0558   0.0197   0.0000  -0.0000   0.0000  -0.0000
 118 C_b :3d1-   0.0112   0.0000   0.0000   0.0090  -0.0022  -0.0137  -0.0098
 119 C_b :3d0   -0.0000   0.0209   0.0111  -0.0000  -0.0000   0.0000  -0.0000
 121 C_b :3d2+  -0.0000  -0.0145   0.0046  -0.0000   0.0000   0.0000  -0.0000
 142 C_b :4f3+   0.0000   0.0021   0.0254   0.0000   0.0000  -0.0000   0.0000
 162 C_c :1s    -0.0000   0.0362  -0.0039   0.0000   0.0000  -0.0000  -0.0000
 165 C_c :1s    -0.0000   0.0128  -0.0748   0.0000  -0.0000   0.0000  -0.0000
 166 C_c :1s     0.0000   0.1437   0.2292  -0.0000  -0.0000   0.0000  -0.0000
 167 C_c :2px    0.0000   0.0522  -0.0559  -0.0000   0.0000  -0.0000   0.0000
 168 C_c :2py   -0.0000  -0.1082  -0.0040   0.0000  -0.0000   0.0000   0.0000
 169 C_c :2pz    0.2457  -0.0000   0.0000   0.1999  -0.0107  -0.0778   0.0924
 174 C_c :2py   -0.0000  -0.0262   0.0082  -0.0000   0.0000   0.0000   0.0000
 176 C_c :2px    0.0000   0.0412  -0.0002  -0.0000   0.0000  -0.0000   0.0000
 177 C_c :2py   -0.0000  -0.0587   0.0601  -0.0000  -0.0000   0.0000  -0.0000
 179 C_c :2px    0.0000   0.0415  -0.0019  -0.0000   0.0000  -0.0000   0.0000
 180 C_c :2py   -0.0000  -0.1183   0.0480   0.0000  -0.0000   0.0000  -0.0000
 192 C_c :3d2-   0.0000  -0.0162   0.0173   0.0000  -0.0000   0.0000   0.0000
 193 C_c :3d1-   0.0103  -0.0000   0.0000   0.0073  -0.0060  -0.0040   0.0044
 196 C_c :3d2+   0.0000   0.0139  -0.0041  -0.0000  -0.0000   0.0000  -0.0000
 197 C_c :3d2-  -0.0000   0.0205   0.0131   0.0000  -0.0000  -0.0000   0.0000
 198 C_c :3d1-   0.0247  -0.0000   0.0000   0.0174  -0.0036  -0.0226  -0.0102
 199 C_c :3d0    0.0000  -0.0006  -0.0109   0.0000  -0.0000   0.0000   0.0000
 201 C_c :3d2+  -0.0000  -0.0668  -0.0653  -0.0000   0.0000   0.0000  -0.0000
 242 C_d :1s     0.0000  -0.0228  -0.0094  -0.0000  -0.0000   0.0000  -0.0000
 244 C_d :1s     0.0000   0.0363  -0.0110  -0.0000   0.0000  -0.0000  -0.0000
 245 C_d :1s    -0.0000  -0.0095  -0.0362   0.0000  -0.0000   0.0000  -0.0000
 246 C_d :1s     0.0000   0.0766  -0.0346  -0.0000   0.0000   0.0000   0.0000
 247 C_d :2px    0.0000  -0.0192   0.0218  -0.0000   0.0000  -0.0000  -0.0000
 248 C_d :2py    0.0000   0.0832   0.0150   0.0000  -0.0000   0.0000   0.0000
 249 C_d :2pz    0.2092  -0.0000  -0.0000   0.0942  -0.0141   0.0779   0.2218
 253 C_d :2px    0.0000  -0.0069   0.0171  -0.0000   0.0000   0.0000  -0.0000
 254 C_d :2py   -0.0000  -0.0252  -0.0018   0.0000   0.0000  -0.0000   0.0000
 256 C_d :2px    0.0000  -0.0261   0.0133  -0.0000   0.0000  -0.0000  -0.0000
 257 C_d :2py    0.0000  -0.0657   0.0013   0.0000   0.0000  -0.0000   0.0000
 258 C_d :2pz   -0.0013   0.0000   0.0000   0.0019   0.0119  -0.0020  -0.0028
 259 C_d :2px   -0.0000  -0.0219   0.0154  -0.0000   0.0000   0.0000  -0.0000
 260 C_d :2py    0.0000  -0.0640   0.0212   0.0000   0.0000  -0.0000   0.0000
 261 C_d :2pz    0.0022   0.0000  -0.0000   0.0023   0.0225   0.0030   0.0059
 272 C_d :3d2-   0.0000   0.0123   0.0176  -0.0000  -0.0000   0.0000   0.0000
 275 C_d :3d1+  -0.0118   0.0000  -0.0000  -0.0037  -0.0011  -0.0038  -0.0107
 276 C_d :3d2+   0.0000   0.0082   0.0201  -0.0000   0.0000  -0.0000   0.0000
 277 C_d :3d2-  -0.0000   0.0228   0.0047   0.0000  -0.0000  -0.0000   0.0000
 278 C_d :3d1-   0.0288   0.0000   0.0000   0.0184  -0.0115  -0.0223  -0.0081
 279 C_d :3d0   -0.0000  -0.0184  -0.0066  -0.0000   0.0000  -0.0000  -0.0000
 280 C_d :3d1+  -0.0149  -0.0000   0.0000  -0.0047   0.0028   0.0056  -0.0073
 281 C_d :3d2+  -0.0000  -0.0042   0.0142   0.0000  -0.0000   0.0000   0.0000
 322 C_e :1s     0.0000   0.0174  -0.0052  -0.0000   0.0000  -0.0000   0.0000
 324 C_e :1s    -0.0000   0.0032   0.0161  -0.0000  -0.0000   0.0000  -0.0000
 325 C_e :1s     0.0000  -0.0367  -0.0478  -0.0000   0.0000  -0.0000  -0.0000
 326 C_e :1s     0.0000   0.0317  -0.0308   0.0000   0.0000  -0.0000   0.0000
 327 C_e :2px    0.0000   0.0329  -0.0085   0.0000  -0.0000   0.0000   0.0000
 328 C_e :2py    0.0000  -0.0518   0.0067  -0.0000   0.0000  -0.0000  -0.0000
 329 C_e :2pz    0.1117  -0.0000  -0.0000  -0.1014  -0.0148   0.2626   0.2144
 333 C_e :2px    0.0000   0.0009   0.0118  -0.0000  -0.0000   0.0000  -0.0000
 334 C_e :2py   -0.0000  -0.0035  -0.0189   0.0000   0.0000   0.0000  -0.0000
 336 C_e :2px    0.0000  -0.0042  -0.0343  -0.0000  -0.0000   0.0000   0.0000
 337 C_e :2py    0.0000   0.0337   0.0118   0.0000   0.0000  -0.0000   0.0000
 339 C_e :2px    0.0000   0.0085   0.0160  -0.0000  -0.0000   0.0000   0.0000
 340 C_e :2py   -0.0000   0.0024  -0.0106  -0.0000  -0.0000  -0.0000  -0.0000
 352 C_e :3d2-  -0.0000  -0.0063  -0.0107  -0.0000  -0.0000  -0.0000  -0.0000
 353 C_e :3d1-   0.0106   0.0000   0.0000   0.0011   0.0011   0.0038   0.0025
 355 C_e :3d1+   0.0041  -0.0000  -0.0000  -0.0060  -0.0006   0.0125   0.0110
 356 C_e :3d2+   0.0000   0.0141   0.0127  -0.0000  -0.0000   0.0000   0.0000
 358 C_e :3d1-   0.0414   0.0000   0.0000   0.0177   0.0039  -0.0120   0.0054
 360 C_e :3d1+  -0.0064  -0.0000  -0.0000  -0.0102   0.0010   0.0115   0.0090
 361 C_e :3d2+   0.0000  -0.0014   0.0258  -0.0000  -0.0000   0.0000  -0.0000
 404 C_f :1s     0.0000   0.0069   0.0200   0.0000  -0.0000   0.0000   0.0000
 405 C_f :1s    -0.0000  -0.0621   0.0410  -0.0000  -0.0000   0.0000  -0.0000
 406 C_f :1s    -0.0000   0.0119  -0.0588  -0.0000  -0.0000   0.0000   0.0000
 407 C_f :2px   -0.0000  -0.0131  -0.0008   0.0000  -0.0000   0.0000   0.0000
 408 C_f :2py   -0.0000   0.0383  -0.0007   0.0000  -0.0000   0.0000  -0.0000
 409 C_f :2pz    0.0237  -0.0000  -0.0000  -0.2018  -0.0084   0.2532   0.0529
 413 C_f :2px   -0.0000  -0.0037  -0.0111   0.0000  -0.0000   0.0000   0.0000
 414 C_f :2py   -0.0000  -0.0146  -0.0064   0.0000  -0.0000   0.0000  -0.0000
 417 C_f :2py    0.0000  -0.0084  -0.0461  -0.0000  -0.0000   0.0000   0.0000
 419 C_f :2px   -0.0000   0.0361  -0.0115   0.0000  -0.0000   0.0000   0.0000
 420 C_f :2py   -0.0000  -0.0496  -0.0015   0.0000  -0.0000   0.0000  -0.0000
 421 C_f :2pz    0.0016  -0.0000  -0.0000  -0.0028  -0.0143   0.0027   0.0026
 435 C_f :3d1+  -0.0032   0.0000   0.0000   0.0105   0.0002  -0.0113  -0.0011
 436 C_f :3d2+  -0.0000  -0.0115  -0.0053   0.0000  -0.0000   0.0000  -0.0000
 437 C_f :3d2-   0.0000  -0.0062   0.0174  -0.0000   0.0000  -0.0000   0.0000
 438 C_f :3d1-   0.0414   0.0000   0.0000   0.0133  -0.0048  -0.0097   0.0058
 440 C_f :3d1+  -0.0138  -0.0000  -0.0000   0.0049   0.0033  -0.0059  -0.0065
 441 C_f :3d2+  -0.0000  -0.0438  -0.0124  -0.0000  -0.0000   0.0000  -0.0000
 485 C_g :1s    -0.0000  -0.0330   0.0221   0.0000  -0.0000   0.0000  -0.0000
 486 C_g :1s     0.0000   0.0022   0.0267   0.0000  -0.0000  -0.0000  -0.0000
 487 C_g :2px   -0.0000   0.0177   0.0008   0.0000  -0.0000  -0.0000  -0.0000
 488 C_g :2py    0.0000  -0.0268   0.0018   0.0000   0.0000   0.0000   0.0000
 489 C_g :2pz   -0.1085  -0.0000  -0.0000  -0.2750   0.0060   0.0836  -0.2342
 497 C_g :2py    0.0000  -0.0178   0.0047  -0.0000   0.0000  -0.0000   0.0000
 500 C_g :2py    0.0000  -0.0332  -0.0121   0.0000   0.0000  -0.0000   0.0000
 515 C_g :3d1+  -0.0059  -0.0000  -0.0000  -0.0140   0.0000   0.0051  -0.0093
 518 C_g :3d1-   0.0432   0.0000   0.0000  -0.0040  -0.0031   0.0024   0.0032
 520 C_g :3d1+  -0.0100  -0.0000  -0.0000  -0.0088   0.0025   0.0020  -0.0094
 521 C_g :3d2+  -0.0000  -0.0147   0.0003  -0.0000   0.0000  -0.0000  -0.0000
 565 C_h :1s     0.0000  -0.0084   0.0207   0.0000   0.0000  -0.0000   0.0000
 566 C_h :1s     0.0000   0.0472   0.0535  -0.0000   0.0000   0.0000   0.0000
 568 C_h :2py    0.0000   0.0193  -0.0016  -0.0000   0.0000  -0.0000  -0.0000
 569 C_h :2pz   -0.1836  -0.0000  -0.0000  -0.2433   0.0134  -0.0741  -0.2668
 576 C_h :2px   -0.0000  -0.0182   0.0027  -0.0000  -0.0000   0.0000  -0.0000
 577 C_h :2py   -0.0000   0.0164  -0.0094  -0.0000   0.0000  -0.0000  -0.0000
 580 C_h :2py   -0.0000  -0.0273   0.0022  -0.0000   0.0000  -0.0000  -0.0000
 593 C_h :3d1-   0.0108  -0.0000  -0.0000   0.0042  -0.0011  -0.0016   0.0068
 595 C_h :3d1+   0.0062   0.0000   0.0000   0.0125  -0.0015   0.0049   0.0114
 598 C_h :3d1-   0.0406   0.0000   0.0000  -0.0075  -0.0052   0.0009   0.0013
 599 C_h :3d0   -0.0000  -0.0133  -0.0083  -0.0000  -0.0000   0.0000  -0.0000
 600 C_h :3d1+  -0.0093  -0.0000  -0.0000   0.0116  -0.0026   0.0023   0.0083
 645 C_i :1s    -0.0000  -0.0232  -0.0477  -0.0000   0.0000  -0.0000  -0.0000
 646 C_i :1s    -0.0000  -0.0063  -0.0388   0.0000   0.0000  -0.0000   0.0000
 648 C_i :2py   -0.0000  -0.0141   0.0006  -0.0000  -0.0000   0.0000   0.0000
 649 C_i :2pz   -0.2670   0.0000   0.0000  -0.1165   0.0174  -0.2604  -0.0787
 657 C_i :2py    0.0000   0.0151   0.0128  -0.0000  -0.0000   0.0000  -0.0000
 659 C_i :2px    0.0000   0.0203  -0.0120  -0.0000  -0.0000   0.0000   0.0000
 660 C_i :2py   -0.0000  -0.0365   0.0125  -0.0000  -0.0000   0.0000  -0.0000
 675 C_i :3d1+  -0.0124   0.0000   0.0000  -0.0064   0.0012  -0.0121  -0.0041
 677 C_i :3d2-  -0.0000  -0.0142  -0.0111  -0.0000  -0.0000   0.0000   0.0000
 678 C_i :3d1-   0.0305   0.0000   0.0000  -0.0241   0.0019  -0.0086  -0.0066
 725 C_j :1s     0.0000  -0.0158  -0.0245   0.0000  -0.0000   0.0000  -0.0000
 726 C_j :1s     0.0000   0.0419   0.0378  -0.0000  -0.0000   0.0000   0.0000
 728 C_j :2py    0.0000   0.0102  -0.0006   0.0000   0.0000  -0.0000   0.0000
 729 C_j :2pz   -0.2912   0.0000   0.0000   0.0037   0.0133  -0.2692   0.1049
 736 C_j :2px    0.0000   0.0171   0.0067   0.0000  -0.0000  -0.0000  -0.0000
 737 C_j :2py    0.0000   0.0051  -0.0283  -0.0000   0.0000  -0.0000   0.0000
 740 C_j :2py    0.0000  -0.0081  -0.0119   0.0000   0.0000  -0.0000   0.0000
 755 C_j :3d1+   0.0113  -0.0000  -0.0000   0.0010  -0.0004   0.0133  -0.0071
 757 C_j :3d2-  -0.0000  -0.0163  -0.0027  -0.0000  -0.0000   0.0000  -0.0000
 758 C_j :3d1-   0.0273   0.0000   0.0000  -0.0239  -0.0015  -0.0123  -0.0050
 760 C_j :3d1+  -0.0048  -0.0000  -0.0000   0.0087   0.0015   0.0120  -0.0045
 805 C_k :1s     0.0000   0.0013   0.0220   0.0000   0.0000   0.0000  -0.0000
 806 C_k :1s     0.0000   0.0058  -0.0363   0.0000  -0.0000   0.0000  -0.0000
 809 C_k :2pz   -0.2961   0.0000   0.0000   0.1766   0.0014  -0.1320   0.2831
 816 C_k :2px   -0.0000   0.0011   0.0175   0.0000   0.0000  -0.0000   0.0000
 820 C_k :2py   -0.0000  -0.0137   0.0023  -0.0000   0.0000  -0.0000  -0.0000
 835 C_k :3d1+  -0.0131   0.0000  -0.0000   0.0078   0.0001  -0.0062   0.0131
 837 C_k :3d2-  -0.0000  -0.0149  -0.0058  -0.0000  -0.0000  -0.0000  -0.0000
 838 C_k :3d1-   0.0130   0.0000   0.0000  -0.0226  -0.0004  -0.0261   0.0061
 840 C_k :3d1+  -0.0047  -0.0000  -0.0000   0.0059   0.0006   0.0032   0.0107
 885 C_l :1s    -0.0000  -0.0222  -0.0156   0.0000  -0.0000   0.0000  -0.0000
 886 C_l :1s    -0.0000   0.0278   0.0521  -0.0000   0.0000  -0.0000   0.0000
 889 C_l :2pz   -0.2685   0.0000  -0.0000   0.2526  -0.0074   0.0224   0.2169
 897 C_l :2py   -0.0000   0.0026   0.0240   0.0000  -0.0000   0.0000   0.0000
 900 C_l :2py   -0.0000  -0.0147   0.0131  -0.0000  -0.0000   0.0000  -0.0000
 915 C_l :3d1+   0.0108  -0.0000   0.0000  -0.0105  -0.0001  -0.0020  -0.0093
 918 C_l :3d1-   0.0107   0.0000   0.0000  -0.0195  -0.0001  -0.0248   0.0071
 920 C_l :3d1+  -0.0010  -0.0000   0.0000   0.0022  -0.0011   0.0033  -0.0113
 921 C_l :3d2+   0.0000  -0.0034  -0.0132   0.0000  -0.0000   0.0000  -0.0000
 965 C_m :1s     0.0000  -0.0019   0.0150   0.0000   0.0000  -0.0000   0.0000
 966 C_m :1s    -0.0000  -0.0107  -0.0203  -0.0000   0.0000   0.0000  -0.0000
 969 C_m :2pz   -0.2093   0.0000  -0.0000   0.2942  -0.0171   0.2349  -0.0596
 977 C_m :2py    0.0000   0.0010   0.0124   0.0000   0.0000   0.0000   0.0000
 995 C_m :3d1+  -0.0086  -0.0000  -0.0000   0.0129  -0.0007   0.0111  -0.0007
 997 C_m :3d2-  -0.0000  -0.0110   0.0061   0.0000   0.0000  -0.0000   0.0000
 998 C_m :3d1-  -0.0012   0.0000   0.0000  -0.0067   0.0007  -0.0192   0.0163
1001 C_m :3d2+   0.0000  -0.0034  -0.0117  -0.0000  -0.0000   0.0000  -0.0000
1045 C_n :1s     0.0000   0.0187  -0.0081  -0.0000   0.0000  -0.0000   0.0000
1046 C_n :1s     0.0000  -0.0025  -0.0266   0.0000   0.0000  -0.0000   0.0000
1049 C_n :2pz   -0.1467   0.0000  -0.0000   0.2488  -0.0174   0.2771  -0.2105
1056 C_n :2px    0.0000   0.0099   0.0227  -0.0000  -0.0000   0.0000  -0.0000
1057 C_n :2py   -0.0000   0.0080   0.0228  -0.0000  -0.0000   0.0000   0.0000
1060 C_n :2py   -0.0000  -0.0154   0.0035  -0.0000   0.0000  -0.0000  -0.0000
1075 C_n :3d1+   0.0042   0.0000   0.0000  -0.0080   0.0007  -0.0107   0.0082
1078 C_n :3d1-  -0.0018   0.0000   0.0000  -0.0045  -0.0007  -0.0163   0.0161
1081 C_n :3d2+  -0.0000   0.0086   0.0142   0.0000  -0.0000   0.0000   0.0000
1125 C_o :1s    -0.0000   0.0204   0.0313  -0.0000  -0.0000   0.0000  -0.0000
1126 C_o :1s    -0.0000   0.0284   0.0335  -0.0000  -0.0000   0.0000  -0.0000
1129 C_o :2pz   -0.0459   0.0000   0.0000   0.1167  -0.0105   0.1937  -0.2587
1136 C_o :2px    0.0000  -0.0117  -0.0012   0.0000   0.0000  -0.0000  -0.0000
1137 C_o :2py    0.0000   0.0180   0.0086   0.0000   0.0000  -0.0000   0.0000
1155 C_o :3d1+  -0.0010   0.0000   0.0000   0.0045  -0.0002   0.0094  -0.0115
1205 C_p :1s    -0.0000  -0.0063  -0.0156   0.0000   0.0000   0.0000   0.0000
1206 C_p :1s    -0.0000   0.0046  -0.0333   0.0000  -0.0000   0.0000   0.0000
1209 C_p :2pz    0.0353   0.0000   0.0000  -0.0188  -0.0005   0.0266  -0.0877
1228 C_p :3d1-   0.0036  -0.0000  -0.0000  -0.0065   0.0005  -0.0092   0.0115
1233 C_p :3d1-   0.0030  -0.0000  -0.0000  -0.0069   0.0006  -0.0113   0.0154
1289 N_a :2pz    0.1330   0.0000   0.0000  -0.1935   0.0134  -0.2222   0.2372
1298 N_a :2pz    0.0056   0.0000   0.0000  -0.0092   0.0006  -0.0130   0.0158
1301 N_a :2pz    0.0034   0.0000   0.0000  -0.0050   0.0006  -0.0069   0.0104
1362 N_b :1s    -0.0000   0.0251   0.0077  -0.0000   0.0000  -0.0000   0.0000
1365 N_b :1s    -0.0000   0.1052  -0.0051  -0.0000   0.0000  -0.0000  -0.0000
1366 N_b :1s     0.0000   0.1648   0.0786  -0.0000  -0.0000  -0.0000  -0.0000
1367 N_b :2px    0.0000  -0.2137  -0.0105  -0.0000   0.0000  -0.0000   0.0000
1368 N_b :2py   -0.0000   0.1704   0.1316   0.0000   0.0000   0.0000  -0.0000
1369 N_b :2pz   -0.0275   0.0000  -0.0000  -0.0277  -0.0072   0.0212   0.0097
1373 N_b :2px   -0.0000   0.0033   0.0185   0.0000  -0.0000  -0.0000   0.0000
1374 N_b :2py   -0.0000  -0.0153   0.0021   0.0000  -0.0000   0.0000  -0.0000
1376 N_b :2px   -0.0000  -0.0855   0.0150   0.0000  -0.0000   0.0000   0.0000
1377 N_b :2py   -0.0000   0.0760   0.0635   0.0000  -0.0000  -0.0000  -0.0000
1378 N_b :2pz    0.0073   0.0000  -0.0000   0.0109   0.0011  -0.0102  -0.0096
1379 N_b :2px   -0.0000  -0.0550  -0.0513   0.0000   0.0000  -0.0000  -0.0000
1380 N_b :2py    0.0000   0.0790  -0.0457  -0.0000  -0.0000  -0.0000  -0.0000
1387 N_b :3d2-   0.0000  -0.0319  -0.0123   0.0000  -0.0000   0.0000   0.0000
1388 N_b :3d1-   0.0030  -0.0000   0.0000   0.0042   0.0211  -0.0033  -0.0046
1390 N_b :3d1+  -0.0022  -0.0000   0.0000  -0.0025   0.0216   0.0049   0.0046
1391 N_b :3d2+  -0.0000  -0.0091   0.0240   0.0000   0.0000   0.0000   0.0000
1392 N_b :3d2-   0.0000  -0.0374  -0.0100  -0.0000  -0.0000  -0.0000   0.0000
1393 N_b :3d1-   0.0036  -0.0000   0.0000   0.0055   0.0248  -0.0049  -0.0072
1395 N_b :3d1+  -0.0032  -0.0000   0.0000  -0.0040   0.0244   0.0069   0.0071
1396 N_b :3d2+   0.0000   0.0171  -0.0152  -0.0000  -0.0000  -0.0000  -0.0000
1397 N_b :3d2-   0.0000   0.0097   0.0117  -0.0000  -0.0000   0.0000   0.0000
1398 N_b :3d1-   0.0001  -0.0000  -0.0000   0.0004  -0.0144  -0.0023  -0.0025
1400 N_b :3d1+   0.0002   0.0000   0.0000  -0.0001  -0.0104   0.0001   0.0022
1401 N_b :3d2+   0.0000   0.0333  -0.1138  -0.0000  -0.0000  -0.0000  -0.0000
1445 O_a :1s    -0.0000   0.0372   0.0014   0.0000  -0.0000  -0.0000   0.0000
1446 O_a :1s     0.0000   0.0418  -0.1176  -0.0000  -0.0000  -0.0000   0.0000
1447 O_a :2px    0.0000   0.6817  -0.4741  -0.0000  -0.0000  -0.0000   0.0000
1448 O_a :2py   -0.0000  -0.3816  -0.0772   0.0000  -0.0000  -0.0000   0.0000
1449 O_a :2pz   -0.0641  -0.0000   0.0000  -0.0902  -0.6436   0.0528   0.0855
1455 O_a :2pz   -0.0008  -0.0000  -0.0000  -0.0013  -0.0104   0.0006   0.0011
1456 O_a :2px    0.0000   0.0830  -0.0419  -0.0000  -0.0000  -0.0000   0.0000
1457 O_a :2py   -0.0000  -0.0326   0.0217   0.0000  -0.0000  -0.0000   0.0000
1458 O_a :2pz   -0.0051  -0.0000   0.0000  -0.0084  -0.0706   0.0034   0.0071
1459 O_a :2px    0.0000   0.0491  -0.0321  -0.0000  -0.0000  -0.0000   0.0000
1460 O_a :2py   -0.0000  -0.0172  -0.0134   0.0000   0.0000  -0.0000   0.0000
1461 O_a :2pz   -0.0030  -0.0000   0.0000  -0.0040  -0.0341   0.0022   0.0042
1472 O_a :3d2-   0.0000   0.0114  -0.0130  -0.0000  -0.0000  -0.0000   0.0000
1473 O_a :3d1-  -0.0022  -0.0000   0.0000  -0.0030  -0.0222   0.0013   0.0019
1476 O_a :3d2+   0.0000   0.0145  -0.0011  -0.0000  -0.0000   0.0000  -0.0000
1477 O_a :3d2-   0.0000   0.0200  -0.0097  -0.0000  -0.0000  -0.0000   0.0000
1478 O_a :3d1-  -0.0018  -0.0000   0.0000  -0.0026  -0.0193   0.0009   0.0014
1481 O_a :3d2+   0.0000   0.0194  -0.0042  -0.0000  -0.0000  -0.0000  -0.0000
1522 O_b :1s    -0.0000   0.0109   0.0056   0.0000   0.0000  -0.0000  -0.0000
1525 O_b :1s     0.0000   0.0130   0.0222  -0.0000   0.0000   0.0000   0.0000
1526 O_b :1s     0.0000  -0.0432   0.1163  -0.0000   0.0000   0.0000   0.0000
1527 O_b :2px   -0.0000   0.3282   0.1825   0.0000  -0.0000  -0.0000  -0.0000
1528 O_b :2py   -0.0000  -0.2078  -0.8065   0.0000  -0.0000  -0.0000  -0.0000
1529 O_b :2pz   -0.0480   0.0000  -0.0000  -0.0503   0.6473   0.1119   0.0944
1535 O_b :2pz   -0.0003  -0.0000   0.0000  -0.0005   0.0105   0.0015   0.0013
1536 O_b :2px   -0.0000   0.0196   0.0393   0.0000  -0.0000  -0.0000  -0.0000
1537 O_b :2py   -0.0000  -0.0402  -0.1047   0.0000  -0.0000  -0.0000  -0.0000
1538 O_b :2pz   -0.0050   0.0000  -0.0000  -0.0063   0.0695   0.0133   0.0117
1539 O_b :2px   -0.0000   0.0260  -0.0041   0.0000  -0.0000  -0.0000  -0.0000
1540 O_b :2py   -0.0000  -0.0253  -0.0511   0.0000   0.0000  -0.0000  -0.0000
1541 O_b :2pz   -0.0031   0.0000  -0.0000  -0.0027   0.0361   0.0069   0.0061
1552 O_b :3d2-   0.0000   0.0000   0.0195  -0.0000   0.0000   0.0000   0.0000
1555 O_b :3d1+   0.0015  -0.0000   0.0000   0.0016  -0.0215  -0.0033  -0.0023
1556 O_b :3d2+  -0.0000  -0.0094  -0.0103  -0.0000   0.0000  -0.0000  -0.0000
1557 O_b :3d2-   0.0000   0.0100   0.0250  -0.0000   0.0000   0.0000   0.0000
1560 O_b :3d1+   0.0020  -0.0000   0.0000   0.0023  -0.0184  -0.0040  -0.0031
1561 O_b :3d2+  -0.0000  -0.0120  -0.0155  -0.0000   0.0000  -0.0000  -0.0000
1601 H_a :1s     0.0000  -0.0711  -0.1507  -0.0000   0.0000  -0.0000   0.0000
1603 H_a :1s    -0.0000  -0.0162   0.0186   0.0000  -0.0000   0.0000  -0.0000
1604 H_a :1s    -0.0000  -0.1090  -0.1076   0.0000  -0.0000  -0.0000  -0.0000
1605 H_a :1s     0.0000  -0.0185   0.0113   0.0000  -0.0000   0.0000  -0.0000
1615 H_a :2px   -0.0000  -0.0091  -0.0319   0.0000  -0.0000   0.0000  -0.0000
1616 H_a :2py   -0.0000  -0.0107   0.0126   0.0000  -0.0000  -0.0000  -0.0000
1617 H_a :2pz    0.0044  -0.0000   0.0000   0.0006   0.0103  -0.0053  -0.0054
1647 H_b :1s    -0.0000  -0.0225   0.0502   0.0000  -0.0000   0.0000   0.0000
1649 H_b :1s     0.0000  -0.0347  -0.0335  -0.0000   0.0000  -0.0000   0.0000
1650 H_b :1s    -0.0000  -0.0353   0.0138   0.0000   0.0000  -0.0000  -0.0000
1651 H_b :1s     0.0000  -0.0309  -0.0022  -0.0000   0.0000  -0.0000  -0.0000
1658 H_b :2px   -0.0000   0.0110  -0.0032   0.0000  -0.0000   0.0000  -0.0000
1659 H_b :2py    0.0000   0.0051   0.0141  -0.0000  -0.0000   0.0000  -0.0000
1661 H_b :2px    0.0000   0.0202  -0.0092   0.0000  -0.0000   0.0000   0.0000
1662 H_b :2py   -0.0000  -0.0231   0.0259  -0.0000   0.0000  -0.0000   0.0000
1693 H_c :1s    -0.0000  -0.0021   0.0625   0.0000  -0.0000   0.0000  -0.0000
1696 H_c :1s     0.0000   0.0691   0.0772  -0.0000   0.0000  -0.0000   0.0000
1707 H_c :2px    0.0000  -0.0051   0.0124  -0.0000   0.0000  -0.0000   0.0000
1708 H_c :2py   -0.0000   0.0281   0.0119   0.0000  -0.0000  -0.0000   0.0000
1739 H_d :1s     0.0000  -0.0157   0.0295  -0.0000   0.0000  -0.0000  -0.0000
1741 H_d :1s    -0.0000  -0.0097  -0.0367   0.0000  -0.0000   0.0000   0.0000
1742 H_d :1s    -0.0000  -0.0064  -0.0629  -0.0000   0.0000   0.0000   0.0000
1743 H_d :1s    -0.0000   0.0427  -0.0202   0.0000  -0.0000   0.0000   0.0000
1754 H_d :2py   -0.0000  -0.0203   0.0118   0.0000  -0.0000   0.0000  -0.0000
1785 H_e :1s    -0.0000  -0.0113   0.0074  -0.0000   0.0000  -0.0000  -0.0000
1788 H_e :1s     0.0000   0.0044  -0.0661   0.0000  -0.0000   0.0000   0.0000
1789 H_e :1s     0.0000   0.0375   0.0020  -0.0000  -0.0000  -0.0000   0.0000
1800 H_e :2py    0.0000   0.0073  -0.0163  -0.0000   0.0000  -0.0000   0.0000
1831 H_f :1s    -0.0000  -0.0128  -0.0003   0.0000  -0.0000   0.0000   0.0000
1833 H_f :1s     0.0000   0.0258   0.0125  -0.0000   0.0000  -0.0000  -0.0000
1834 H_f :1s     0.0000   0.0495   0.0269  -0.0000  -0.0000  -0.0000   0.0000
1835 H_f :1s     0.0000  -0.0318   0.0163  -0.0000   0.0000  -0.0000  -0.0000
1879 H_g :1s    -0.0000   0.0053  -0.0143   0.0000  -0.0000  -0.0000   0.0000
1880 H_g :1s    -0.0000   0.0216  -0.0063  -0.0000  -0.0000   0.0000  -0.0000
1881 H_g :1s    -0.0000  -0.0379   0.0035   0.0000   0.0000  -0.0000  -0.0000
1893 H_g :2pz    0.0000  -0.0000  -0.0000  -0.0102   0.0002   0.0029  -0.0075
1926 H_h :1s    -0.0000  -0.0207  -0.0199   0.0000   0.0000  -0.0000  -0.0000
1927 H_h :1s    -0.0000   0.0229  -0.0098   0.0000  -0.0000   0.0000  -0.0000
1971 H_i :1s     0.0000   0.0135   0.0166  -0.0000  -0.0000   0.0000  -0.0000
1972 H_i :1s     0.0000   0.0276   0.0310  -0.0000   0.0000  -0.0000   0.0000
1973 H_i :1s     0.0000   0.0315  -0.0062  -0.0000  -0.0000   0.0000   0.0000
[...]
      ----------------------------------------------------------------
         1    1.51302D-01  0.00D+00  1.51D-01  7.25D+01    0.00000D+00
         2    1.56446D-01  0.00D+00  1.56D-01  7.54D+01    1.82000D-02
         3    1.74117D-01  0.00D+00  1.74D-01  8.51D+01    3.64000D-02

 ** RSPCTL MICROITERATION NUMBER    7

       No.  Residual tot.,    conf., and orb.    Bnorm      Frequency 
      ----------------------------------------------------------------
         1    5.12532D-02  0.00D+00  5.13D-02  7.25D+01    0.00000D+00
         2    5.34904D-02  0.00D+00  5.35D-02  7.54D+01    1.82000D-02
         3    6.12778D-02  0.00D+00  6.13D-02  8.51D+01    3.64000D-02

 *** THE REQUESTED    3 SOLUTION VECTORS CONVERGED

 Convergence of RSP solution vectors, threshold = 1.00D-03
 ---------------------------------------------------------------
 (dimension of paired reduced space:   42)
 RSP solution vector no.    1; norm of residual   7.07D-04
 RSP solution vector no.    2; norm of residual   7.09D-04
 RSP solution vector no.    3; norm of residual   7.20D-04

 *** RSPCTL MICROITERATIONS CONVERGED

@ QRLRVE: SINGLET SOLUTION FOR SYMMETRY    1  ( A  )    LABEL   YDIPLEN     FREQUENCY   0.000000D+00

@ QRLRVE:  << XDIPLEN  ; YDIPLEN  >> (   0.00000):    -152.313704193    

@ QRLRVE:  << YDIPLEN  ; YDIPLEN  >> (   0.00000):     1206.72959587    

@ QRLRVE:  << ZDIPLEN  ; YDIPLEN  >> (   0.00000):   -3.519412051549E-14

@ QRLRVE: SINGLET SOLUTION FOR SYMMETRY    1  ( A  )    LABEL   YDIPLEN     FREQUENCY   0.182000D-01

@ QRLRVE:  << XDIPLEN  ; YDIPLEN  >> (   0.01820):    -156.715706160    

@ QRLRVE:  << YDIPLEN  ; YDIPLEN  >> (   0.01820):     1236.06922367    

@ QRLRVE:  << ZDIPLEN  ; YDIPLEN  >> (   0.01820):   -3.690825297089E-14

@ QRLRVE: SINGLET SOLUTION FOR SYMMETRY    1  ( A  )    LABEL   YDIPLEN     FREQUENCY   0.364000D-01

@ QRLRVE:  << XDIPLEN  ; YDIPLEN  >> (   0.03640):    -171.590914039    

@ QRLRVE:  << YDIPLEN  ; YDIPLEN  >> (   0.03640):     1335.01868753    

@ QRLRVE:  << ZDIPLEN  ; YDIPLEN  >> (   0.03640):   -4.272608076361E-14


 QRLRVE -- linear response calculation for symmetry  1  ( A  )
 QRLRVE -- operator label : ZDIPLEN 
 QRLRVE -- operator spin  :   0
 QRLRVE -- frequencies :  0.000000  0.018200  0.036400



 ---  SOLVING SETS OF LINEAR EQUATIONS FOR LINEAR RESPONSE PROPERTIES ---

 Operator symmetry = 1  ( A  ); triplet =   F


 ** RSPCTL MICROITERATION NUMBER    1

       No.  Residual tot.,    conf., and orb.    Bnorm      Frequency 
      ----------------------------------------------------------------
         1    3.66755D+00  0.00D+00  3.67D+00  9.13D+00    0.00000D+00
         2    3.67021D+00  0.00D+00  3.67D+00  9.16D+00    1.82000D-02
         3    3.67827D+00  0.00D+00  3.68D+00  9.23D+00    3.64000D-02

 ** RSPCTL MICROITERATION NUMBER    2

       No.  Residual tot.,    conf., and orb.    Bnorm      Frequency 
      ----------------------------------------------------------------
         1    9.60054D-01  0.00D+00  9.60D-01  9.56D+00    0.00000D+00
         2    9.62084D-01  0.00D+00  9.62D-01  9.59D+00    1.82000D-02
         3    9.68235D-01  0.00D+00  9.68D-01  9.67D+00    3.64000D-02

 ** RSPCTL MICROITERATION NUMBER    3

       No.  Residual tot.,    conf., and orb.    Bnorm      Frequency 
      ----------------------------------------------------------------
         1    1.92156D-01  0.00D+00  1.92D-01  9.60D+00    0.00000D+00
         2    1.93205D-01  0.00D+00  1.93D-01  9.62D+00    1.82000D-02
         3    1.96403D-01  0.00D+00  1.96D-01  9.71D+00    3.64000D-02

 ** RSPCTL MICROITERATION NUMBER    4

       No.  Residual tot.,    conf., and orb.    Bnorm      Frequency 
      ----------------------------------------------------------------
         1    5.74373D-02  0.00D+00  5.74D-02  9.60D+00    0.00000D+00
         2    5.81836D-02  0.00D+00  5.82D-02  9.63D+00    1.82000D-02
         3    6.05125D-02  0.00D+00  6.05D-02  9.71D+00    3.64000D-02

 ** RSPCTL MICROITERATION NUMBER    5

       No.  Residual tot.,    conf., and orb.    Bnorm      Frequency 
      ----------------------------------------------------------------
         1    2.07237D-02  0.00D+00  2.07D-02  9.60D+00    0.00000D+00
         2    2.12417D-02  0.00D+00  2.12D-02  9.63D+00    1.82000D-02
         3    2.28720D-02  0.00D+00  2.29D-02  9.71D+00    3.64000D-02

 ** RSPCTL MICROITERATION NUMBER    6

       No.  Residual tot.,    conf., and orb.    Bnorm      Frequency 
      ----------------------------------------------------------------
         1    8.26873D-03  0.00D+00  8.27D-03  9.60D+00    0.00000D+00
         2    8.55769D-03  0.00D+00  8.56D-03  9.63D+00    1.82000D-02
         3    9.47743D-03  0.00D+00  9.48D-03  9.71D+00    3.64000D-02

 *** THE REQUESTED    3 SOLUTION VECTORS CONVERGED

 Convergence of RSP solution vectors, threshold = 1.00D-03
 ---------------------------------------------------------------
 (dimension of paired reduced space:   36)
 RSP solution vector no.    1; norm of residual   8.61D-04
 RSP solution vector no.    2; norm of residual   8.89D-04
 RSP solution vector no.    3; norm of residual   9.76D-04

 *** RSPCTL MICROITERATIONS CONVERGED

@ QRLRVE: SINGLET SOLUTION FOR SYMMETRY    1  ( A  )    LABEL   ZDIPLEN     FREQUENCY   0.000000D+00

@ QRLRVE:  << XDIPLEN  ; ZDIPLEN  >> (   0.00000):   -3.995415610897E-14

@ QRLRVE:  << YDIPLEN  ; ZDIPLEN  >> (   0.00000):   -4.569111008099E-14

@ QRLRVE:  << ZDIPLEN  ; ZDIPLEN  >> (   0.00000):     132.249999670    

@ QRLRVE: SINGLET SOLUTION FOR SYMMETRY    1  ( A  )    LABEL   ZDIPLEN     FREQUENCY   0.182000D-01

@ QRLRVE:  << XDIPLEN  ; ZDIPLEN  >> (   0.01820):   -4.064763403112E-14

@ QRLRVE:  << YDIPLEN  ; ZDIPLEN  >> (   0.01820):   -4.747094962679E-14

@ QRLRVE:  << ZDIPLEN  ; ZDIPLEN  >> (   0.01820):     132.404691784    

@ QRLRVE: SINGLET SOLUTION FOR SYMMETRY    1  ( A  )    LABEL   ZDIPLEN     FREQUENCY   0.364000D-01

@ QRLRVE:  << XDIPLEN  ; ZDIPLEN  >> (   0.03640):   -4.283019795887E-14

@ QRLRVE:  << YDIPLEN  ; ZDIPLEN  >> (   0.03640):   -5.345976748502E-14

@ QRLRVE:  << ZDIPLEN  ; ZDIPLEN  >> (   0.03640):     132.872699842    
 
 ======================================================================
 ---  L I N E A R   R E S P O N S E   F U N C T I O N S --- 
 ======================================================================

 The -<<A;B>>(omega_b) functions from vectors generated
 in a *QUADRA calculation of <<A;B,C>>(omega_b,omega_c)

 Note: the accuracy of off-diagonal elements will be linear
 in the convergence threshold THCLR =  1.00D-03


 Perturbation symmetry.     KSYMOP:           1
 Perturbation spin symmetry.TRPLET:           F
 Orbital variables.         KZWOPT:      167688
 Configuration variables.   KZCONF:           0
 Total number of variables. KZVAR :      167688

@ Singlet linear response function in a.u.

@ A operator, symmetry, frequency:   XDIPLEN    1 -0.000000
@ B operator, symmetry, frequency:   XDIPLEN    1  0.000000

@ Value of linear response -<<A;B>>(omega):     206.467320183720

@ Singlet linear response function in a.u.

@ A operator, symmetry, frequency:   YDIPLEN    1 -0.000000
@ B operator, symmetry, frequency:   XDIPLEN    1  0.000000

@ Value of linear response -<<A;B>>(omega):    -152.343183282673

@ Singlet linear response function in a.u.

@ A operator, symmetry, frequency:   ZDIPLEN    1 -0.000000
@ B operator, symmetry, frequency:   XDIPLEN    1  0.000000

@ Value of linear response -<<A;B>>(omega):      -0.000000000000

@ Singlet linear response function in a.u.

@ A operator, symmetry, frequency:   XDIPLEN    1 -0.018200
@ B operator, symmetry, frequency:   XDIPLEN    1  0.018200

@ Value of linear response -<<A;B>>(omega):     207.389358476475

@ Singlet linear response function in a.u.

@ A operator, symmetry, frequency:   YDIPLEN    1 -0.018200
@ B operator, symmetry, frequency:   XDIPLEN    1  0.018200

@ Value of linear response -<<A;B>>(omega):    -156.746843094870

@ Singlet linear response function in a.u.

@ A operator, symmetry, frequency:   ZDIPLEN    1 -0.018200
@ B operator, symmetry, frequency:   XDIPLEN    1  0.018200

@ Value of linear response -<<A;B>>(omega):      -0.000000000000

@ Singlet linear response function in a.u.

@ A operator, symmetry, frequency:   XDIPLEN    1 -0.000000
@ B operator, symmetry, frequency:   YDIPLEN    1  0.000000

@ Value of linear response -<<A;B>>(omega):    -152.313704192510

@ Singlet linear response function in a.u.

@ A operator, symmetry, frequency:   YDIPLEN    1 -0.000000
@ B operator, symmetry, frequency:   YDIPLEN    1  0.000000

@ Value of linear response -<<A;B>>(omega):    1206.729595869843

@ Singlet linear response function in a.u.

@ A operator, symmetry, frequency:   ZDIPLEN    1 -0.000000
@ B operator, symmetry, frequency:   YDIPLEN    1  0.000000

@ Value of linear response -<<A;B>>(omega):      -0.000000000000

@ Singlet linear response function in a.u.

@ A operator, symmetry, frequency:   XDIPLEN    1 -0.018200
@ B operator, symmetry, frequency:   YDIPLEN    1  0.018200

@ Value of linear response -<<A;B>>(omega):    -156.715706160093

@ Singlet linear response function in a.u.

@ A operator, symmetry, frequency:   YDIPLEN    1 -0.018200
@ B operator, symmetry, frequency:   YDIPLEN    1  0.018200

@ Value of linear response -<<A;B>>(omega):    1236.069223667829

@ Singlet linear response function in a.u.

@ A operator, symmetry, frequency:   ZDIPLEN    1 -0.018200
@ B operator, symmetry, frequency:   YDIPLEN    1  0.018200

@ Value of linear response -<<A;B>>(omega):      -0.000000000000

@ Singlet linear response function in a.u.

@ A operator, symmetry, frequency:   XDIPLEN    1 -0.000000
@ B operator, symmetry, frequency:   ZDIPLEN    1  0.000000

@ Value of linear response -<<A;B>>(omega):      -0.000000000000

@ Singlet linear response function in a.u.

@ A operator, symmetry, frequency:   YDIPLEN    1 -0.000000
@ B operator, symmetry, frequency:   ZDIPLEN    1  0.000000

@ Value of linear response -<<A;B>>(omega):      -0.000000000000

@ Singlet linear response function in a.u.

@ A operator, symmetry, frequency:   ZDIPLEN    1 -0.000000
@ B operator, symmetry, frequency:   ZDIPLEN    1  0.000000

@ Value of linear response -<<A;B>>(omega):     132.249999670085

@ Singlet linear response function in a.u.

@ A operator, symmetry, frequency:   XDIPLEN    1 -0.018200
@ B operator, symmetry, frequency:   ZDIPLEN    1  0.018200

@ Value of linear response -<<A;B>>(omega):      -0.000000000000

@ Singlet linear response function in a.u.

@ A operator, symmetry, frequency:   YDIPLEN    1 -0.018200
@ B operator, symmetry, frequency:   ZDIPLEN    1  0.018200

@ Value of linear response -<<A;B>>(omega):      -0.000000000000

@ Singlet linear response function in a.u.

@ A operator, symmetry, frequency:   ZDIPLEN    1 -0.018200
@ B operator, symmetry, frequency:   ZDIPLEN    1  0.018200

@ Value of linear response -<<A;B>>(omega):     132.404691784454


  Results from quadratic response calculation
 --------------------------------------------

@ B-freq = 0.000000  C-freq = 0.000000     beta(X;X,X) =   -802.65586260
@ B-freq = 0.000000  C-freq = 0.000000     beta(Y;X,X) =   3431.56427288
@ B-freq = 0.000000  C-freq = 0.000000     beta(Z;X,X) =      0.00000000
@ B-freq = 0.018200  C-freq = 0.000000     beta(X;X,X) =   -838.09454963
@ B-freq = 0.018200  C-freq = 0.000000     beta(Y;X,X) =   3603.13750127
@ B-freq = 0.018200  C-freq = 0.000000     beta(Z;X,X) =      0.00000000
@ B-freq = 0.000000  C-freq = 0.000000     beta(X;Y,X) = beta(Y,X,X)
@ B-freq = 0.000000  C-freq = 0.000000     beta(X;Y,X) =   3431.56448648
@ B-freq = 0.000000  C-freq = 0.000000     beta(Y;Y,X) = -12776.43714988
@ B-freq = 0.000000  C-freq = 0.000000     beta(Z;Y,X) =      0.00000000
@ B-freq = 0.018200  C-freq = 0.000000     beta(X;Y,X) =   3603.13772502
@ B-freq = 0.018200  C-freq = 0.000000     beta(Y;Y,X) = -13564.51137822
@ B-freq = 0.018200  C-freq = 0.000000     beta(Z;Y,X) =      0.00000000
@ B-freq = 0.000000  C-freq = 0.000000     beta(X;Z,X) = beta(Z,X,X)
@ B-freq = 0.000000  C-freq = 0.000000     beta(Y;Z,X) = beta(Z,Y,X)
@ B-freq = 0.000000  C-freq = 0.000000     beta(X;Z,X) =      0.00000000
@ B-freq = 0.000000  C-freq = 0.000000     beta(Y;Z,X) =      0.00000000
@ B-freq = 0.000000  C-freq = 0.000000     beta(Z;Z,X) =     12.09787506
@ B-freq = 0.018200  C-freq = 0.000000     beta(X;Z,X) =      0.00000000
@ B-freq = 0.018200  C-freq = 0.000000     beta(Y;Z,X) =      0.00000000
@ B-freq = 0.018200  C-freq = 0.000000     beta(Z;Z,X) =     12.22416313
@ B-freq = 0.000000  C-freq = 0.018200     beta(X;X,X) = beta(X,X,X)
@ B-freq = 0.000000  C-freq = 0.018200     beta(Y;X,X) = beta(Y,X,X)
@ B-freq = 0.000000  C-freq = 0.018200     beta(Z;X,X) = beta(Z,X,X)
@ B-freq = 0.018200  C-freq = 0.018200     beta(X;X,X) =   -917.57399337
@ B-freq = 0.018200  C-freq = 0.018200     beta(Y;X,X) =   4036.71260813
@ B-freq = 0.018200  C-freq = 0.018200     beta(Z;X,X) =      0.00000000
@ B-freq = 0.000000  C-freq = 0.018200     beta(X;Y,X) =   3564.30165941
@ B-freq = 0.000000  C-freq = 0.018200     beta(Y;Y,X) = -13379.09109799
@ B-freq = 0.000000  C-freq = 0.018200     beta(Z;Y,X) =      0.00000000
@ B-freq = 0.018200  C-freq = 0.018200     beta(X;Y,X) =   3903.51761067
@ B-freq = 0.018200  C-freq = 0.018200     beta(Y;Y,X) = -15160.98029235
@ B-freq = 0.018200  C-freq = 0.018200     beta(Z;Y,X) =      0.00000000
@ B-freq = 0.000000  C-freq = 0.018200     beta(X;Z,X) =      0.00000000
@ B-freq = 0.000000  C-freq = 0.018200     beta(Y;Z,X) =      0.00000000
@ B-freq = 0.000000  C-freq = 0.018200     beta(Z;Z,X) =     12.21592616
@ B-freq = 0.018200  C-freq = 0.018200     beta(X;Z,X) =      0.00000000
@ B-freq = 0.018200  C-freq = 0.018200     beta(Y;Z,X) =      0.00000000
@ B-freq = 0.018200  C-freq = 0.018200     beta(Z;Z,X) =     12.47832321
@ B-freq = 0.000000  C-freq = 0.000000     beta(X;X,Y) = beta(Y,X,X)
@ B-freq = 0.000000  C-freq = 0.000000     beta(Y;X,Y) = beta(Y,Y,X)
@ B-freq = 0.000000  C-freq = 0.000000     beta(Z;X,Y) = beta(Z,Y,X)
@ B-freq = 0.018200  C-freq = 0.000000     beta(X;X,Y) = beta(X,Y,X)
@ B-freq = 0.018200  C-freq = 0.000000     beta(Y;X,Y) = beta(Y,Y,X)
@ B-freq = 0.018200  C-freq = 0.000000     beta(Z;X,Y) = beta(Z,Y,X)
@ B-freq = 0.000000  C-freq = 0.000000     beta(X;Y,Y) = beta(Y,Y,X)
@ B-freq = 0.000000  C-freq = 0.000000     beta(X;Y,Y) = -12776.43857946
@ B-freq = 0.000000  C-freq = 0.000000     beta(Y;Y,Y) =  39217.36940715
@ B-freq = 0.000000  C-freq = 0.000000     beta(Z;Y,Y) =     -0.00000000
@ B-freq = 0.018200  C-freq = 0.000000     beta(X;Y,Y) = -13379.09259676
@ B-freq = 0.018200  C-freq = 0.000000     beta(Y;Y,Y) =  41691.43326966
@ B-freq = 0.018200  C-freq = 0.000000     beta(Z;Y,Y) =     -0.00000000
@ B-freq = 0.000000  C-freq = 0.000000     beta(X;Z,Y) = beta(Z,Y,X)
@ B-freq = 0.000000  C-freq = 0.000000     beta(Y;Z,Y) = beta(Z,Y,Y)
@ B-freq = 0.000000  C-freq = 0.000000     beta(X;Z,Y) =      0.00000000
@ B-freq = 0.000000  C-freq = 0.000000     beta(Y;Z,Y) =     -0.00000000
@ B-freq = 0.000000  C-freq = 0.000000     beta(Z;Z,Y) =    -38.15831764
@ B-freq = 0.018200  C-freq = 0.000000     beta(X;Z,Y) =      0.00000000
@ B-freq = 0.018200  C-freq = 0.000000     beta(Y;Z,Y) =     -0.00000000
@ B-freq = 0.018200  C-freq = 0.000000     beta(Z;Z,Y) =    -38.82534131
@ B-freq = 0.000000  C-freq = 0.018200     beta(X;X,Y) = beta(X,Y,X)
@ B-freq = 0.000000  C-freq = 0.018200     beta(Y;X,Y) = beta(Y,Y,X)
@ B-freq = 0.000000  C-freq = 0.018200     beta(Z;X,Y) = beta(Z,Y,X)
@ B-freq = 0.018200  C-freq = 0.018200     beta(X;X,Y) = beta(X,Y,X)
@ B-freq = 0.018200  C-freq = 0.018200     beta(Y;X,Y) = beta(Y,Y,X)
@ B-freq = 0.018200  C-freq = 0.018200     beta(Z;X,Y) = beta(Z,Y,X)
@ B-freq = 0.000000  C-freq = 0.018200     beta(X;Y,Y) = beta(X,Y,Y)
@ B-freq = 0.000000  C-freq = 0.018200     beta(Y;Y,Y) = beta(Y,Y,Y)
@ B-freq = 0.000000  C-freq = 0.018200     beta(Z;Y,Y) = beta(Z,Y,Y)
@ B-freq = 0.018200  C-freq = 0.018200     beta(X;Y,Y) = -14527.29747958
@ B-freq = 0.018200  C-freq = 0.018200     beta(Y;Y,Y) =  47367.36351377
@ B-freq = 0.018200  C-freq = 0.018200     beta(Z;Y,Y) =     -0.00000000
@ B-freq = 0.000000  C-freq = 0.018200     beta(X;Z,Y) =      0.00000000
@ B-freq = 0.000000  C-freq = 0.018200     beta(Y;Z,Y) =     -0.00000000
@ B-freq = 0.000000  C-freq = 0.018200     beta(Z;Z,Y) =    -38.83518954
@ B-freq = 0.018200  C-freq = 0.018200     beta(X;Z,Y) =      0.00000000
@ B-freq = 0.018200  C-freq = 0.018200     beta(Y;Z,Y) =     -0.00000000
@ B-freq = 0.018200  C-freq = 0.018200     beta(Z;Z,Y) =    -40.23331109
@ B-freq = 0.000000  C-freq = 0.000000     beta(X;X,Z) = beta(Z,X,X)
@ B-freq = 0.000000  C-freq = 0.000000     beta(Y;X,Z) = beta(Z,Y,X)
@ B-freq = 0.000000  C-freq = 0.000000     beta(Z;X,Z) = beta(Z,Z,X)
@ B-freq = 0.018200  C-freq = 0.000000     beta(X;X,Z) = beta(X,Z,X)
@ B-freq = 0.018200  C-freq = 0.000000     beta(Y;X,Z) = beta(Y,Z,X)
@ B-freq = 0.018200  C-freq = 0.000000     beta(Z;X,Z) = beta(Z,Z,X)
@ B-freq = 0.000000  C-freq = 0.000000     beta(X;Y,Z) = beta(Z,Y,X)
@ B-freq = 0.000000  C-freq = 0.000000     beta(Y;Y,Z) = beta(Z,Y,Y)
@ B-freq = 0.000000  C-freq = 0.000000     beta(Z;Y,Z) = beta(Z,Z,Y)
@ B-freq = 0.018200  C-freq = 0.000000     beta(X;Y,Z) = beta(X,Z,Y)
@ B-freq = 0.018200  C-freq = 0.000000     beta(Y;Y,Z) = beta(Y,Z,Y)
@ B-freq = 0.018200  C-freq = 0.000000     beta(Z;Y,Z) = beta(Z,Z,Y)
@ B-freq = 0.000000  C-freq = 0.000000     beta(X;Z,Z) = beta(Z,Z,X)
@ B-freq = 0.000000  C-freq = 0.000000     beta(Y;Z,Z) = beta(Z,Z,Y)
@ B-freq = 0.000000  C-freq = 0.000000     beta(X;Z,Z) =     12.09786070
@ B-freq = 0.000000  C-freq = 0.000000     beta(Y;Z,Z) =    -38.15826438
@ B-freq = 0.000000  C-freq = 0.000000     beta(Z;Z,Z) =      0.00000000
@ B-freq = 0.018200  C-freq = 0.000000     beta(X;Z,Z) =     12.21591141
@ B-freq = 0.018200  C-freq = 0.000000     beta(Y;Z,Z) =    -38.83513405
@ B-freq = 0.018200  C-freq = 0.000000     beta(Z;Z,Z) =      0.00000000
@ B-freq = 0.000000  C-freq = 0.018200     beta(X;X,Z) = beta(X,Z,X)
@ B-freq = 0.000000  C-freq = 0.018200     beta(Y;X,Z) = beta(Y,Z,X)
@ B-freq = 0.000000  C-freq = 0.018200     beta(Z;X,Z) = beta(Z,Z,X)
@ B-freq = 0.018200  C-freq = 0.018200     beta(X;X,Z) = beta(X,Z,X)
@ B-freq = 0.018200  C-freq = 0.018200     beta(Y;X,Z) = beta(Y,Z,X)
@ B-freq = 0.018200  C-freq = 0.018200     beta(Z;X,Z) = beta(Z,Z,X)
@ B-freq = 0.000000  C-freq = 0.018200     beta(X;Y,Z) = beta(X,Z,Y)
@ B-freq = 0.000000  C-freq = 0.018200     beta(Y;Y,Z) = beta(Y,Z,Y)
@ B-freq = 0.000000  C-freq = 0.018200     beta(Z;Y,Z) = beta(Z,Z,Y)
@ B-freq = 0.018200  C-freq = 0.018200     beta(X;Y,Z) = beta(X,Z,Y)
@ B-freq = 0.018200  C-freq = 0.018200     beta(Y;Y,Z) = beta(Y,Z,Y)
@ B-freq = 0.018200  C-freq = 0.018200     beta(Z;Y,Z) = beta(Z,Z,Y)
@ B-freq = 0.000000  C-freq = 0.018200     beta(X;Z,Z) = beta(X,Z,Z)
@ B-freq = 0.000000  C-freq = 0.018200     beta(Y;Z,Z) = beta(Y,Z,Z)
@ B-freq = 0.000000  C-freq = 0.018200     beta(Z;Z,Z) = beta(Z,Z,Z)
@ B-freq = 0.018200  C-freq = 0.018200     beta(X;Z,Z) =     12.45897834
@ B-freq = 0.018200  C-freq = 0.018200     beta(Y;Z,Z) =    -40.30613329
@ B-freq = 0.018200  C-freq = 0.018200     beta(Z;Z,Z) =      0.00000000

  Total CPU  time used in RESPONSE:   5 hours 44 minutes 35 seconds
  Total wall time used in RESPONSE:   5 hours 46 minutes 17 seconds


                   .-------------------------------------------.
                   | End of Dynamic Property Section (RESPONS) |
                   `-------------------------------------------'

  Total CPU  time used in DALTON:   7 hours 21 minutes  1 second 
  Total wall time used in DALTON:   7 hours 23 minutes 12 seconds

 
     Date and time (Linux)  : Thu May 29 04:35:32 2025
     Host name              : xm009                                   
