

     ************************************************************************
     *************** Dalton - An Electronic Structure Program ***************
     ************************************************************************

    This is output from DALTON release Dalton2020.0 (2020)
         ( Web site: http://daltonprogram.org )

   ----------------------------------------------------------------------------

    NOTE:
     
    Dalton is an experimental code for the evaluation of molecular
    properties using (MC)SCF, DFT, CI, and CC wave functions.
    The authors accept no responsibility for the performance of
    the code or for the correctness of the results.
     
    The code (in whole or part) is provided under a licence and
    is not to be reproduced for further distribution without
    the written permission of the authors or their representatives.
     
    See the home page "http://daltonprogram.org" for further information.
     
    If results obtained with this code are published,
    the appropriate citations would be both of:
     
       K. Aidas, C. Angeli, K. L. Bak, V. Bakken, R. Bast,
       L. Boman, O. Christiansen, R. Cimiraglia, S. Coriani,
       P. Dahle, E. K. Dalskov, U. Ekstroem,
       T. Enevoldsen, J. J. Eriksen, P. Ettenhuber, B. Fernandez,
       L. Ferrighi, H. Fliegl, L. Frediani, K. Hald, A. Halkier,
       C. Haettig, H. Heiberg, T. Helgaker, A. C. Hennum,
       H. Hettema, E. Hjertenaes, S. Hoest, I.-M. Hoeyvik,
       M. F. Iozzi, B. Jansik, H. J. Aa. Jensen, D. Jonsson,
       P. Joergensen, J. Kauczor, S. Kirpekar,
       T. Kjaergaard, W. Klopper, S. Knecht, R. Kobayashi, H. Koch,
       J. Kongsted, A. Krapp, K. Kristensen, A. Ligabue,
       O. B. Lutnaes, J. I. Melo, K. V. Mikkelsen, R. H. Myhre,
       C. Neiss, C. B. Nielsen, P. Norman, J. Olsen,
       J. M. H. Olsen, A. Osted, M. J. Packer, F. Pawlowski,
       T. B. Pedersen, P. F. Provasi, S. Reine, Z. Rinkevicius,
       T. A. Ruden, K. Ruud, V. Rybkin, P. Salek, C. C. M. Samson,
       A. Sanchez de Meras, T. Saue, S. P. A. Sauer,
       B. Schimmelpfennig, K. Sneskov, A. H. Steindal,
       K. O. Sylvester-Hvid, P. R. Taylor, A. M. Teale,
       E. I. Tellgren, D. P. Tew, A. J. Thorvaldsen, L. Thoegersen,
       O. Vahtras, M. A. Watson, D. J. D. Wilson, M. Ziolkowski
       and H. Agren,
       "The Dalton quantum chemistry program system",
       WIREs Comput. Mol. Sci. 2014, 4:269–284 (doi: 10.1002/wcms.1172)
     
    and
     
       Dalton, a molecular electronic structure program,
       Release Dalton2020.0 (2020), see http://daltonprogram.org
   ----------------------------------------------------------------------------

    Authors in alphabetical order (Major contribution(s) in parenthesis):

  Kestutis Aidas,           Vilnius University,           Lithuania   (QM/MM)
  Celestino Angeli,         University of Ferrara,        Italy       (NEVPT2)
  Keld L. Bak,              UNI-C,                        Denmark     (AOSOPPA, non-adiabatic coupling, magnetic properties)
  Vebjoern Bakken,          University of Oslo,           Norway      (DALTON; geometry optimizer, symmetry detection)
  Radovan Bast,             UiT The Arctic U. of Norway,  Norway      (DALTON installation and execution frameworks)
  Pablo Baudin,             University of Valencia,       Spain       (Cholesky excitation energies)
  Linus Boman,              NTNU,                         Norway      (Cholesky decomposition and subsystems)
  Bruno N. Cabral Tenorio,  Technical Univ. of Denmark,   Denmark     (Lanczos-based CC methods)
  Ove Christiansen,         Aarhus University,            Denmark     (CC module)
  Renzo Cimiraglia,         University of Ferrara,        Italy       (NEVPT2)
  Sonia Coriani,            Technical Univ. of Denmark,   Denmark     (CC and RESPONS modules)
  Janusz Cukras,            University of Warsaw,         Poland      (MChD in RESPONS)
  Paal Dahle,               University of Oslo,           Norway      (Parallelization)
  Erik K. Dalskov,          UNI-C,                        Denmark     (SOPPA)
  Thomas Enevoldsen,        Univ. of Southern Denmark,    Denmark     (SOPPA)
  Janus J. Eriksen,         Aarhus University,            Denmark     (Polarizable embedding, TDA)
  Rasmus Faber,             Technical Univ. of Denmark,   Denmark     (Vib.avg. NMR w. SOPPA, parallel AO-SOPPA, CVS-CC and EOMCC)
  Tobias Fahleson,          KTH Stockholm,                Sweden      (Damped cubic response)
  Berta Fernandez,          U. of Santiago de Compostela, Spain       (Doublet spin, ESR in RESPONS)
  Lara Ferrighi,            Aarhus University,            Denmark     (PCM Cubic response)
  Heike Fliegl,             University of Oslo,           Norway      (CCSD(R12))
  Luca Frediani,            UiT The Arctic U. of Norway,  Norway      (PCM)
  Emmanuel Fromager,        Univ. Strasbourg,             France      (MC-srDFT)
  Bin Gao,                  UiT The Arctic U. of Norway,  Norway      (Gen1Int library)
  Andre S. P. Gomes,        CNRS/Universite de Lille,     France      (Frozen density embedding)
  Christof Haettig,         Ruhr-University Bochum,       Germany     (CC module)
  Kasper Hald,              Aarhus University,            Denmark     (CC module)
  Asger Halkier,            Aarhus University,            Denmark     (CC module)
  Frederik Beyer Hansen,    University of Copenhagen,     Denmark     (Parallel AO-SOPPA)
  Erik D. Hedegaard,        Univ. of Southern Denmark,    Denmark     (Polarizable embedding, QM/MM, and MC-srDFT)
  Hanne Heiberg,            University of Oslo,           Norway      (Geometry analysis, selected one-electron integrals)
  Trygve Helgaker,          University of Oslo,           Norway      (DALTON; ABACUS, ERI, DFT modules, London, and much more)
  Alf Christian Hennum,     University of Oslo,           Norway      (Parity violation)
  Hinne Hettema,            University of Auckland,       New Zealand (Quadratic response in RESPONS; SIRIUS supersymmetry)
  Eirik Hjertenaes,         NTNU,                         Norway      (Cholesky decomposition)
  Pi A. B. Haase,           University of Copenhagen,     Denmark     (Triplet AO-SOPPA)
  Maria Francesca Iozzi,    University of Oslo,           Norway      (RPA)
  Christoph Jacob           TU Braunschweig               Germany     (Frozen density embedding)
  Brano Jansik              Technical Univ. of Ostrava    Czech Rep.  (DFT cubic response)
  Hans Joergen Aa. Jensen,  Univ. of Southern Denmark,    Denmark     (DALTON; SIRIUS, RESPONS, ABACUS, MC-srDFT, and much more)
  Dan Jonsson,              UiT The Arctic U. of Norway,  Norway      (Cubic response in RESPONS module)
  Poul Joergensen,          Aarhus University,            Denmark     (RESPONS, ABACUS, and CC modules)
  Maciej Kaminski,          University of Warsaw,         Poland      (CPPh in RESPONS)
  Joanna Kauczor,           Linkoeping University,        Sweden      (Complex polarization propagator (CPP) module)
  Sheela Kirpekar,          Univ. of Southern Denmark,    Denmark     (Mass-velocity & Darwin integrals)
  Erik Kjellgren,           Univ. of Southern Denmark,    Denmark     (MC-srDFT)
  Wim Klopper,              KIT Karlsruhe,                Germany     (R12 code in CC, SIRIUS, and ABACUS modules)
  Stefan Knecht,            ETH Zurich,                   Switzerland (Parallel CI and MCSCF, MC-srDFT)
  Rika Kobayashi,           Australian National Univ.,    Australia   (DIIS in CC, London in MCSCF)
  Henrik Koch,              NTNU,                         Norway      (CC module, Cholesky decomposition)
  Jacob Kongsted,           Univ. of Southern Denmark,    Denmark     (Polarizable embedding, polarizable density embedding, QM/MM)
  Andrea Ligabue,           University of Modena,         Italy       (CTOCD, AOSOPPA)
  Nanna H. List             Univ. of Southern Denmark,    Denmark     (Polarizable embedding)
  Ola B. Lutnaes,           University of Oslo,           Norway      (DFT Hessian)
  Juan I. Melo,             University of Buenos Aires,   Argentina   (LRESC, Relativistic Effects on NMR Shieldings)
  Kurt V. Mikkelsen,        University of Copenhagen,     Denmark     (MC-SCRF and QM/MM)
  Rolf H. Myhre,            NTNU,                         Norway      (Subsystems and CC3)
  Christian Neiss,          Univ. Erlangen-Nuernberg,     Germany     (CCSD(R12))
  Christian B. Nielsen,     University of Copenhagen,     Denmark     (QM/MM)
  Patrick Norman,           KTH Stockholm,                Sweden      (Cubic response and complex frequency response in RESPONS)
  Jeppe Olsen,              Aarhus University,            Denmark     (SIRIUS CI/density modules)
  Jogvan Magnus H. Olsen,   Aarhus University,            Denmark     (Polarizable embedding and polarizable density embedding)
  Anders Osted,             Copenhagen University,        Denmark     (QM/MM)
  Martin J. Packer,         University of Sheffield,      UK          (SOPPA)
  Filip Pawlowski,          Kazimierz Wielki University,  Poland      (CC3)
  Morten N. Pedersen,       Univ. of Southern Denmark,    Denmark     (Polarizable embedding)
  Thomas B. Pedersen,       University of Oslo,           Norway      (Cholesky decomposition)
  Patricio F. Provasi,      University of Northeastern,   Argentina   (Analysis of coupling constants in localized orbitals)
  Peter Reinholdt,          Univ. of Southern Denmark,    Denmark     (Polarizable embedding and polarizable density embedding)
  Zilvinas Rinkevicius,     KTH Stockholm,                Sweden      (open-shell DFT, ESR)
  Elias Rudberg,            KTH Stockholm,                Sweden      (DFT grid and basis info)
  Torgeir A. Ruden,         University of Oslo,           Norway      (Numerical derivatives in ABACUS)
  Kenneth Ruud,             UiT The Arctic U. of Norway,  Norway      (DALTON; ABACUS magnetic properties and much more)
  Pawel Salek,              KTH Stockholm,                Sweden      (DALTON; DFT code)
  Claire C. M. Samson       University of Karlsruhe       Germany     (Boys localization, r12 integrals in ERI)
  Alfredo Sanchez de Meras, University of Valencia,       Spain       (CC module, Cholesky decomposition)
  Trond Saue,               Paul Sabatier University,     France      (direct Fock matrix construction)
  Stephan P. A. Sauer,      University of Copenhagen,     Denmark     (SOPPA(CCSD), SOPPA prop., AOSOPPA, vibrational g-factors)
  Bernd Schimmelpfennig,    Forschungszentrum Karlsruhe,  Germany     (AMFI module)
  Anna K. Schnack-Petersen, University of Copenhagen,     Denmark     (RPA(D) and HRPA(D) properties in AOSOPPA)
  Kristian Sneskov,         Aarhus University,            Denmark     (Polarizable embedding, QM/MM)
  Arnfinn H. Steindal,      UiT The Arctic U. of Norway,  Norway      (parallel QM/MM, polarizable embedding)
  Casper Steinmann,         Aalborg University,           Denmark     (QFIT, polarizable embedding)
  K. O. Sylvester-Hvid,     University of Copenhagen,     Denmark     (MC-SCRF)
  Peter R. Taylor,          VLSCI/Univ. of Melbourne,     Australia   (Symmetry handling ABACUS, integral transformation)
  Andrew M. Teale,          University of Nottingham,     England     (DFT-AC, DFT-D)
  David P. Tew,             University of Bristol,        England     (CCSD(R12))
  Julien Toulouse,          Sorbonne Univ.,               France      (MC-srDFT)
  Olav Vahtras,             KTH Stockholm,                Sweden      (Triplet response, spin-orbit, ESR, TDDFT, open-shell DFT)
  Lucas Visscher,           Vrije Universiteit Amsterdam, Netherlands (Frozen density embedding)
  David J. Wilson,          La Trobe University,          Australia   (DFT Hessian and DFT magnetizabilities)
  Hans Agren,               KTH Stockholm,                Sweden      (SIRIUS module, RESPONS, MC-SCRF solvation)
 --------------------------------------------------------------------------------

     Date and time (Linux)  : Fri May 30 17:42:04 2025
     Host name              : xm052                                   

 * Work memory size             :   131072000 = 1000.00 megabytes.

 * Directories for basis set searches:
   1) /gpfs/projects/rjh/adrian/summer2025/beta_projects/raw_data/NLO/dalton/hf/n8/dipole
   2) /gpfs/projects/rjh/adrian/dalton/build/basis


Compilation information
-----------------------

 Who compiled             | ahurtado
 Host                     | milan2
 System                   | Linux-5.14.0-427.42.1.el9_4.x86_64
 CMake generator          | Unix Makefiles
 Processor                | x86_64
 64-bit integers          | OFF
 MPI                      | ON
 Fortran compiler         | /gpfs/software/openmpi/milan/gcc13.2/4.1.6/bin/mpi
                          | f90
 Fortran compiler version | GNU Fortran (GCC) 13.2.0
 C compiler               | /gpfs/software/openmpi/milan/gcc13.2/4.1.6/bin/mpi
                          | cc
 C compiler version       | gcc (GCC) 13.2.0
 C++ compiler             | /gpfs/software/openmpi/milan/gcc13.2/4.1.6/bin/mpi
                          | cxx
 C++ compiler version     | unknown
 BLAS                     | /gpfs/software/intel/oneAPI/2024_2/mkl/2024.2/lib/
                          | intel64/libmkl_gf_lp64.so;/gpfs/software/intel/one
                          | API/2024_2/mkl/2024.2/lib/intel64/libmkl_sequentia
                          | l.so;/gpfs/software/intel/oneAPI/2024_2/mkl/2024.2
                          | /lib/intel64/libmkl_core.so;/usr/lib64/libpthread.
                          | a;/usr/lib64/libm.so
 LAPACK                   | /gpfs/software/intel/oneAPI/2024_2/mkl/2024.2/lib/
                          | intel64/libmkl_lapack95_lp64.a;/gpfs/software/inte
                          | l/oneAPI/2024_2/mkl/2024.2/lib/intel64/libmkl_gf_l
                          | p64.so
 Static linking           | OFF
 Last Git revision        | 66052b3af5ea7225e31178bf9a8b031913c72190
 Git branch               | (HEAD detached at Dalton2020.0)
 Configuration time       | 2025-04-10 16:02:31.569498

 * MPI parallel run using 576 processes.


   Content of the .dal input file
 ----------------------------------

**DALTON INPUT
.RUN RESPONSE
.DIRECT
**WAVE FUNCTIONS
.HF
**PROPERTIES
**RESPONSE
*QUADRA
.DIPLEN
.FREQUENCIES
2
0.0 0.0182
**END OF DALTON INPUT


   Content of the .mol file
 ----------------------------

BASIS
d-aug-cc-pVTZ
blah
blah
Atomtype=4 Angstrom Charge=0 Nosymmetry
Charge=6 Atoms=16
C_a 1.6519229998176075 -8.049175002179144 0.0
C_b 1.9444589988455454 -6.728077999620022 0.0
C_c 0.9366040010539604 -5.690966000374534 0.0
C_d 1.2516239989151714 -4.3572310024581675 0.0
C_e 0.27660000195709034 -3.2955410025308343 0.0
C_f 0.6103160000079801 -1.9627990003585178 0.0
C_g -0.34819400077912716 -0.8893029986516443 0.0
C_h 0.0 0.44131100203631646 0.0
C_i -0.9456049984846748 1.5250140013287934 0.0
C_j -0.5837860021820497 2.8524229979061544 0.0
C_k -1.5159250017279444 3.9479510017318074 0.0
C_l -1.1372629986153835 5.270107999161623 0.0
C_m -2.0506620021783046 6.382867002528075 0.0
C_n -1.644438999988493 7.694968997942507 0.0
C_o -2.523165000348833 8.836908002186938 0.0
C_p -2.048411998888029 10.121828000534174 0.0
Charge=7 Atoms=2
N_a -2.8041959988864313 11.262344999778092 0.0
N_b 2.7078260024374066 -9.054929002399435 0.0
Charge=8 Atoms=2
O_a 2.323730000259234 -10.230869002414845 0.0
O_b 3.8840309985246044 -8.68481800029295 0.0
Charge=1 Atoms=18
H_a 0.6520620016836924 -8.487247000469075 0.0
H_b 3.0029160011878337 -6.440803001043983 0.0
H_c -0.1199049994321818 -5.991733001657485 0.0
H_d 2.3134169978947887 -4.069848998958359 0.0
H_e -0.7863270026179043 -3.5764360025252904 0.0
H_f 1.676177001168674 -1.6897610013336615 0.0
H_g -1.4149200003001545 -1.1563959986374055 0.0
H_h 1.0690499976606709 0.702059998074365 0.0
H_i -2.0153140016928814 1.2696639992838707 0.0
H_j 0.4883619999572235 3.1008549974829505 0.0
H_k -2.588692998470783 3.705754000889098 0.0
H_l -0.061098001686370085 5.5019949980746725 0.0
H_m -3.127446999002655 6.160261999436378 0.0
H_n -0.5619530024451147 7.897245002306574 0.0
H_o -3.6077729985069977 8.662572999055104 0.0
H_p -0.9650279982016882 10.295662999994963 0.0
H_q -3.8139179973785255 11.215004002162194 0.0
H_r -2.3715529989374713 12.17301699971304 0.0


       *******************************************************************
       *********** Output from DALTON general input processing ***********
       *******************************************************************

 --------------------------------------------------------------------------------
   Overall default print level:    0
   Print level for DALTON.STAT:    1

    Parallel calculation using MPI
    AO-direct calculation (in sections where implemented)
    HERMIT 1- and 2-electron integral sections will be executed
    "Old" integral transformation used (limited to max 255 basis functions)
    Wave function sections will be executed (SIRIUS module)
    Dynamic molecular response properties section will be executed (RESPONSE module)
 --------------------------------------------------------------------------------


   ****************************************************************************
   *************** Output of molecule and basis set information ***************
   ****************************************************************************


    The two title cards from your ".mol" input:
    ------------------------------------------------------------------------
 1: blah                                                                    
 2: blah                                                                    
    ------------------------------------------------------------------------

  Coordinates are entered in Angstrom and converted to atomic units.
          - Conversion factor : 1 bohr = 0.52917721 A

  Atomic type no.    1
  --------------------
  Nuclear charge:   6.00000
  Number of symmetry independent centers:   16
  Number of basis sets to read;    2
  Basis set file used for this atomic type with Z =   6 :
     "/gpfs/projects/rjh/adrian/dalton/build/basis/aug-cc-pVTZ"

  Atomic type no.    2
  --------------------
  Nuclear charge:   7.00000
  Number of symmetry independent centers:    2
  Number of basis sets to read;    2
  Basis set file used for this atomic type with Z =   7 :
     "/gpfs/projects/rjh/adrian/dalton/build/basis/aug-cc-pVTZ"

  Atomic type no.    3
  --------------------
  Nuclear charge:   8.00000
  Number of symmetry independent centers:    2
  Number of basis sets to read;    2
  Basis set file used for this atomic type with Z =   8 :
     "/gpfs/projects/rjh/adrian/dalton/build/basis/aug-cc-pVTZ"

  Atomic type no.    4
  --------------------
  Nuclear charge:   1.00000
  Number of symmetry independent centers:   18
  Number of basis sets to read;    2
  Basis set file used for this atomic type with Z =   1 :
     "/gpfs/projects/rjh/adrian/dalton/build/basis/aug-cc-pVTZ"


                         SYMGRP: Point group information
                         -------------------------------

@    Point group: C1 


                                 Isotopic Masses
                                 ---------------

                           C_a        12.000000
                           C_b        12.000000
                           C_c        12.000000
                           C_d        12.000000
                           C_e        12.000000
                           C_f        12.000000
                           C_g        12.000000
                           C_h        12.000000
                           C_i        12.000000
                           C_j        12.000000
                           C_k        12.000000
                           C_l        12.000000
                           C_m        12.000000
                           C_n        12.000000
                           C_o        12.000000
                           C_p        12.000000
                           N_a        14.003074
                           N_b        14.003074
                           O_a        15.994915
                           O_b        15.994915
                           H_a         1.007825
                           H_b         1.007825
                           H_c         1.007825
                           H_d         1.007825
                           H_e         1.007825
                           H_f         1.007825
                           H_g         1.007825
                           H_h         1.007825
                           H_i         1.007825
                           H_j         1.007825
                           H_k         1.007825
                           H_l         1.007825
                           H_m         1.007825
                           H_n         1.007825
                           H_o         1.007825
                           H_p         1.007825
                           H_q         1.007825
                           H_r         1.007825

                       Total mass:   270.136828 amu
                       Natural abundance:  82.539 %

 Center-of-mass coordinates (a.u.):    0.084675   -0.271854    0.000000
 Center-of-mass coordinates (Angs):    0.044808   -0.143859    0.000000


  Atoms and basis sets
  --------------------

  Number of atom types :    4
  Total number of atoms:   38

  Basis set used is "d-aug-cc-pVTZ" from the basis set library.

  label    atoms   charge   prim   cont     basis
  ----------------------------------------------------------------------
  C_         16    6.0000    74    62      [12s7p4d3f|6s5p4d3f]                               
  N_          2    7.0000    74    62      [12s7p4d3f|6s5p4d3f]                               
  O_          2    8.0000    74    62      [12s7p4d3f|6s5p4d3f]                               
  H_         18    1.0000    34    32      [7s4p3d|5s4p3d]                                    
  ----------------------------------------------------------------------
  total:     38  144.0000  2092  1816
  ----------------------------------------------------------------------
  Spherical harmonic basis used.

  Threshold for neglecting AO integrals:  1.00D-12

  Max    interatomic separation is   22.8906 Angstrom (   43.2570 Bohr)
  between atoms   38 and   19, "H_r   " and "O_a   ".

  Min HX interatomic separation is    1.0082 Angstrom (    1.9053 Bohr)

  Min YX interatomic separation is    1.2331 Angstrom (    2.3301 Bohr)


  Bond distances (Angstrom):
  --------------------------

                  atom 1     atom 2       distance
                  ------     ------       --------
  bond distance:  C_b        C_a          1.353098
  bond distance:  C_c        C_b          1.446158
  bond distance:  C_d        C_c          1.370433
  bond distance:  C_e        C_d          1.441478
  bond distance:  C_f        C_e          1.373888
  bond distance:  C_g        C_f          1.439144
  bond distance:  C_h        C_g          1.375417
  bond distance:  C_i        C_h          1.438256
  bond distance:  C_j        C_i          1.375837
  bond distance:  C_k        C_j          1.438424
  bond distance:  C_l        C_k          1.375312
  bond distance:  C_m        C_l          1.439629
  bond distance:  C_n        C_m          1.373546
  bond distance:  C_o        C_n          1.440897
  bond distance:  C_p        C_o          1.369821
  bond distance:  N_a        C_p          1.368206
  bond distance:  N_b        C_a          1.458243
  bond distance:  O_a        N_b          1.237079
  bond distance:  O_b        N_b          1.233061
  bond distance:  H_a        C_a          1.091618
  bond distance:  H_b        C_b          1.096749
  bond distance:  H_c        C_c          1.098486
  bond distance:  H_d        C_d          1.099997
  bond distance:  H_e        C_e          1.099416
  bond distance:  H_f        C_f          1.100277
  bond distance:  H_g        C_g          1.099656
  bond distance:  H_h        C_h          1.100390
  bond distance:  H_i        C_i          1.099764
  bond distance:  H_j        C_j          1.100554
  bond distance:  H_k        C_k          1.099768
  bond distance:  H_l        C_l          1.100865
  bond distance:  H_m        C_m          1.099554
  bond distance:  H_n        C_n          1.101223
  bond distance:  H_o        C_o          1.098530
  bond distance:  H_p        C_p          1.097242
  bond distance:  H_q        N_a          1.010831
  bond distance:  H_r        N_a          1.008218


  Bond angles (degrees):
  ----------------------

                  atom 1     atom 2     atom 3         angle
                  ------     ------     ------         -----
  bond angle:     C_b        C_a        N_b          121.121
  bond angle:     C_b        C_a        H_a          126.146
  bond angle:     N_b        C_a        H_a          112.734
  bond angle:     C_a        C_b        C_c          123.334
  bond angle:     C_a        C_b        H_b          117.671
  bond angle:     C_c        C_b        H_b          118.996
  bond angle:     C_b        C_c        C_d          122.530
  bond angle:     C_b        C_c        H_c          118.290
  bond angle:     C_d        C_c        H_c          119.180
  bond angle:     C_c        C_d        C_e          124.147
  bond angle:     C_c        C_d        H_d          118.434
  bond angle:     C_e        C_d        H_d          117.419
  bond angle:     C_d        C_e        C_f          123.379
  bond angle:     C_d        C_e        H_e          117.761
  bond angle:     C_f        C_e        H_e          118.861
  bond angle:     C_e        C_f        C_g          124.181
  bond angle:     C_e        C_f        H_f          118.426
  bond angle:     C_g        C_f        H_f          117.393
  bond angle:     C_f        C_g        C_h          123.574
  bond angle:     C_f        C_g        H_g          117.704
  bond angle:     C_h        C_g        H_g          118.721
  bond angle:     C_g        C_h        C_i          124.229
  bond angle:     C_g        C_h        H_h          118.372
  bond angle:     C_i        C_h        H_h          117.400
  bond angle:     C_h        C_i        C_j          123.646
  bond angle:     C_h        C_i        H_i          117.681
  bond angle:     C_j        C_i        H_i          118.673
  bond angle:     C_i        C_j        C_k          124.360
  bond angle:     C_i        C_j        H_j          118.293
  bond angle:     C_k        C_j        H_j          117.347
  bond angle:     C_j        C_k        C_l          123.625
  bond angle:     C_j        C_k        H_k          117.671
  bond angle:     C_l        C_k        H_k          118.704
  bond angle:     C_k        C_l        C_m          124.638
  bond angle:     C_k        C_l        H_l          118.141
  bond angle:     C_m        C_l        H_l          117.221
  bond angle:     C_l        C_m        C_n          123.417
  bond angle:     C_l        C_m        H_m          117.700
  bond angle:     C_n        C_m        H_m          118.883
  bond angle:     C_m        C_n        C_o          125.219
  bond angle:     C_m        C_n        H_n          117.787
  bond angle:     C_o        C_n        H_n          116.994
  bond angle:     C_n        C_o        C_p          122.143
  bond angle:     C_n        C_o        H_o          118.447
  bond angle:     C_p        C_o        H_o          119.410
  bond angle:     C_o        C_p        N_a          126.191
  bond angle:     C_o        C_p        H_p          119.394
  bond angle:     N_a        C_p        H_p          114.415
  bond angle:     C_p        N_a        H_q          120.847
  bond angle:     C_p        N_a        H_r          121.057
  bond angle:     H_q        N_a        H_r          118.096
  bond angle:     C_a        N_b        O_a          115.518
  bond angle:     C_a        N_b        O_b          118.926
  bond angle:     O_a        N_b        O_b          125.556




 Principal moments of inertia (u*A**2) and principal axes
 --------------------------------------------------------

   IA     106.400601         -0.256912    0.966435    0.000000
   IB   13629.472743          0.966435    0.256912    0.000000
   IC   13735.873344          0.000000    0.000000    1.000000


 Rotational constants
 --------------------

@    The molecule is planar.

               A                   B                   C

           4749.7759             37.0799             36.7926 MHz
            0.158435            0.001237            0.001227 cm-1


@  Nuclear repulsion energy : 1124.842995138595 Hartree


                     .---------------------------------------.
                     | Starting in Integral Section (HERMIT) |
                     `---------------------------------------'



 ***************************************************************************************
 ****************** Output from **INTEGRALS input processing (HERMIT) ******************
 ***************************************************************************************


 - Using defaults, no **INTEGRALS input found

 Default print level:        1

 Calculation of one-electron Hamiltonian integrals.

 Center of mass  (bohr):      0.084675424180     -0.271853977243      0.000000000000
 Operator center (bohr):      0.000000000000      0.000000000000      0.000000000000
 Gauge origin    (bohr):      0.000000000000      0.000000000000      0.000000000000
 Dipole origin   (bohr):      0.000000000000      0.000000000000      0.000000000000


     ************************************************************************
     ************************** Output from HERINT **************************
     ************************************************************************



                      Nuclear contribution to dipole moments
                      --------------------------------------

                 au               Debye          C m (/(10**-30)

      x      0.00000567         0.00001441         0.00004807
      y     -0.00000199        -0.00000506        -0.00001687
      z      0.00000000         0.00000000         0.00000000


  Time used in ONEDRV     is       5.34 seconds
  Time used in HUCKEL     is       1.22 seconds
  Time used in OVERLAP    is       0.70 seconds
  Time used in POPOVLP    is       1.36 seconds
  Time used in R2         is       0.86 seconds
  Time used in R4         is       1.02 seconds
  Time used in DIPLEN     is       1.20 seconds
  Time used in QUADRUP    is       2.37 seconds
  Time used in KINENE     is       1.16 seconds
  Time used in GABGEN     is      12.47 seconds
  Total CPU  time used in HERMIT:  27.69 seconds
  Total wall time used in HERMIT:  27.88 seconds


                        .----------------------------------.
                        | End of Integral Section (HERMIT) |
                        `----------------------------------'



                   .--------------------------------------------.
                   | Starting in Wave Function Section (SIRIUS) |
                   `--------------------------------------------'



@ Primary orbitals are deleted during canonical orthonormalization
@   because of detected numerical linear dependence or too large coefficients.
@ Eigenvalue threshold for num. lin. dep. =  1.00D-06

@ 114 MO components are deleted in symmetry    1
 Overlap eigenvalues of the deleted orbitals:
  9.78D-07  9.67D-07  8.88D-07  8.62D-07  8.33D-07
  7.76D-07  7.24D-07  7.15D-07  6.53D-07  6.23D-07
  6.18D-07  5.94D-07  5.39D-07  5.14D-07  4.76D-07
  4.74D-07  4.70D-07  4.57D-07  4.37D-07  4.27D-07
  4.24D-07  4.21D-07  4.01D-07  3.77D-07  3.64D-07
  3.61D-07  3.41D-07  3.17D-07  2.98D-07  2.91D-07
  2.76D-07  2.63D-07  2.57D-07  2.43D-07  2.41D-07
  2.08D-07  1.95D-07  1.87D-07  1.75D-07  1.70D-07
  1.56D-07  1.52D-07  1.44D-07  1.40D-07  1.33D-07
  1.32D-07  1.27D-07  1.23D-07  1.22D-07  1.18D-07
  1.07D-07  1.05D-07  9.34D-08  9.08D-08  8.89D-08
  8.42D-08  8.23D-08  8.07D-08  7.79D-08  7.58D-08
  7.34D-08  6.97D-08  6.93D-08  6.40D-08  5.98D-08
  5.83D-08  5.69D-08  5.57D-08  5.30D-08  4.88D-08
  4.63D-08  4.58D-08  4.26D-08  3.86D-08  3.41D-08
  3.28D-08  3.22D-08  3.00D-08  2.65D-08  2.44D-08
  2.32D-08  2.08D-08  2.00D-08  1.96D-08  1.88D-08
  1.64D-08  1.40D-08  1.36D-08  1.21D-08  1.13D-08
  9.78D-09  9.68D-09  8.70D-09  8.19D-09  7.32D-09
  6.77D-09  6.16D-09  4.68D-09  4.63D-09  3.81D-09
  3.29D-09  3.07D-09  2.79D-09  2.38D-09  2.21D-09
  2.18D-09  1.98D-09  1.73D-09  9.95D-10  7.22D-10
  6.94D-10  4.65D-10  3.77D-10  3.28D-10

 Max MO coeff. of last deleted MO & limit:  3.69D+02  1.00D+03

WARNING: Orbitals have been deleted because of numerical
   linear dependence although not requested in input.

 *** Output from Huckel module :

     Using EWMO model:          T
     Using EHT  model:          F
     Number of Huckel orbitals each symmetry:  118

 EWMO - Energy Weighted Maximum Overlap - is a Huckel type method,
        which normally is better than Extended Huckel Theory.
 Reference: Linderberg and Ohrn, Propagators in Quantum Chemistry (Wiley, 1973)

 Huckel EWMO eigenvalues for symmetry :  1
          -20.684752     -20.683494     -15.677079     -15.674967     -11.359307
          -11.359266     -11.358906     -11.358593     -11.357325     -11.355507
          -11.353426     -11.351440     -11.348398     -11.347250     -11.346283
          -11.345667     -11.345449     -11.345400     -11.345246     -11.345227
           -1.964065      -1.791926      -1.782678      -1.755573      -1.701620
           -1.617914      -1.510222      -1.444708      -1.381225      -1.253330
           -1.201590      -1.154517      -1.127543      -1.083590      -1.015880
           -0.988337      -0.927502      -0.887204      -0.852017      -0.846774
           -0.822695      -0.776281      -0.748511      -0.742719      -0.741154
           -0.691295      -0.685733      -0.664159      -0.634185      -0.633128
           -0.606804      -0.586000      -0.583835      -0.570952      -0.552233
           -0.539569      -0.520624      -0.513914      -0.510557      -0.496194
           -0.493338      -0.486689      -0.484633      -0.477852      -0.476338
           -0.474917      -0.453982      -0.434481      -0.404414      -0.395254
           -0.368300      -0.363568      -0.335252      -0.295149      -0.266773
           -0.243802      -0.229156      -0.226082      -0.213043      -0.203946
           -0.200991      -0.198050      -0.194756      -0.190554      -0.166609
           -0.142744      -0.138877      -0.133593      -0.131413      -0.131078
           -0.129945      -0.129497      -0.129429      -0.128444      -0.127646
           -0.127087      -0.126593      -0.126145      -0.125008      -0.124537
           -0.123965      -0.123214      -0.111649      -0.109435      -0.105607
           -0.102379      -0.098860      -0.095905      -0.092761      -0.091358
           -0.088590      -0.087964      -0.086082      -0.085619      -0.084136
           -0.082272      -0.080515      -0.079387

 **********************************************************************
 *SIRIUS* a direct, restricted step, second order MCSCF program       *
 **********************************************************************

 
     Date and time (Linux)  : Fri May 30 17:47:43 2025
     Host name              : xm052                                   

 Title lines from ".mol" input file:
     blah                                                                    
     blah                                                                    

 Print level on unit LUPRI =   2 is   0
 Print level on unit LUW4  =   2 is   5

@    Restricted, closed shell Hartree-Fock calculation.

@    Time-dependent Hartree-Fock calculation (random phase approximation).
 Fock matrices are calculated directly and in parallel without use of integrals on disk.

 Initial molecular orbitals are obtained according to
 ".MOSTART EWMO  " input option

     Wave function specification
     ============================
@    Wave function type        --- HF ---
@    Number of closed shell electrons         144
@    Number of electrons in active shells       0
@    Total charge of the molecule               0

@    Spin multiplicity and 2 M_S                1         0
@    Total number of symmetries                 1 (point group: C1 )
@    Reference state symmetry                   1 (irrep name : A  )

     Orbital specifications
     ======================
@    Abelian symmetry species          All |    1
@                                          |  A  
                                       --- |  ---
@    Occupied SCF orbitals              72 |   72
@    Secondary orbitals               1630 | 1630
@    Total number of orbitals         1702 | 1702
@    Number of basis functions        1816 | 1816

     Optimization information
     ========================
@    Number of configurations                 1
@    Number of orbital rotations         117360
     ------------------------------------------
@    Total number of variables           117361

     Maximum number of Fock   iterations      0
     Maximum number of DIIS   iterations     60
     Maximum number of QC-SCF iterations     60
     Threshold for SCF convergence     1.00D-05

    INFORMATION: Switched to "new" integral transformation (from 1988 ;-) )
    because more than 255 basis functions.


 ***********************************************
 ***** DIIS acceleration of SCF iterations *****
 ***********************************************

 C1-DIIS algorithm; max error vectors =    8

 Iter      Total energy        Error norm    Delta(E)  DIIS dim.
 -----------------------------------------------------------------------------
   1  Screening settings (-IFTHRS, JTDIIS, DIFDEN, times)  -10    1    T  7.62D+01  7.65D+01
@  1    -871.653271174        7.29543D+00   -8.72D+02    1
      Virial theorem: -V/T =      2.010135
@    MULPOP   C_a     0.10; C_b     0.43; C_c     0.24; C_d     0.31; C_e     0.28; C_f     0.26; C_g     0.31; C_h     0.22; C_i     0.42; C_j     0.19; 
@             C_k     0.35; C_l     0.22; C_m     0.14; C_n     0.27; C_o     0.17; C_p     0.51; N_a    -0.88; N_b     0.04; O_a    -0.77; O_b    -0.75; 
@             H_a     0.16; H_b    -0.08; H_c    -0.09; H_d    -0.24; H_e    -0.24; H_f    -0.28; H_g    -0.21; H_h    -0.32; H_i    -0.21; H_j    -0.29; 
@    MULPOP    dipole moment & components:     26.4358;       -9.6772     24.6009      0.0000
   1  Level shift: doubly occupied orbital energies shifted by -2.00D-01
 -----------------------------------------------------------------------------
   2  Screening settings (-IFTHRS, JTDIIS, DIFDEN, times)  -10    2    T  7.34D+01  7.38D+01
@  2    -874.558126488        2.96390D+00   -2.90D+00    2
      Virial theorem: -V/T =      2.001063
@    MULPOP   C_a    -0.58; C_b     0.34; C_c     0.15; C_d     0.22; C_e     0.15; C_f    -0.04; C_g     0.36; C_h    -0.15; C_i     0.54; C_j    -0.21; 
@             C_k     0.32; C_l     0.05; C_m     0.11; C_n     0.06; C_o     0.12; C_p    -0.23; N_a    -0.70; N_b    -0.01; O_a    -0.70; O_b    -0.76; 
@             H_a     0.90; H_b     0.30; H_c     0.06; H_d    -0.06; H_e    -0.08; H_f    -0.23; H_g    -0.03; H_h    -0.24; H_i    -0.08; H_j    -0.25; 
@    MULPOP    dipole moment & components:     13.7537;       -7.9157     11.2475      0.0000
   2  Level shift: doubly occupied orbital energies shifted by -1.00D-01
 -----------------------------------------------------------------------------
   3  Screening settings (-IFTHRS, JTDIIS, DIFDEN, times)  -10    3    T  7.24D+01  7.25D+01
@  3    -874.989415383        9.39895D-01   -4.31D-01    3
      Virial theorem: -V/T =      2.001613
@    MULPOP   C_a    -0.22; C_b     0.27; C_c     0.13; C_d     0.19; C_e     0.15; C_f    -0.04; C_g     0.30; C_h    -0.16; C_i     0.46; C_j    -0.20; 
@             C_k     0.22; C_l     0.03; C_m     0.03; C_n     0.08; C_o    -0.04; C_p    -0.00; N_a    -0.80; N_b     0.68; O_a    -1.21; O_b    -1.11; 
@             H_a     0.80; H_b     0.33; H_c     0.04; H_d    -0.02; H_e    -0.05; H_f    -0.19; H_g     0.01; H_h    -0.19; H_i    -0.05; H_j    -0.20; 
@    MULPOP    dipole moment & components:     11.6034;       -7.0192      9.2396      0.0000
   3  Level shift: doubly occupied orbital energies shifted by -5.00D-02
 -----------------------------------------------------------------------------
   4  Screening settings (-IFTHRS, JTDIIS, DIFDEN, times)  -10    4    T  7.19D+01  7.20D+01
@  4    -875.045459397        2.77670D-01   -5.60D-02    4
      Virial theorem: -V/T =      2.003415
@    MULPOP   C_a    -0.26; C_b     0.24; C_c     0.12; C_d     0.20; C_e     0.17; C_f    -0.01; C_g     0.30; C_h    -0.14; C_i     0.46; C_j    -0.16; 
@             C_k     0.20; C_l     0.04; C_m     0.03; C_n     0.11; C_o    -0.08; C_p     0.05; N_a    -0.84; N_b     0.60; O_a    -1.17; O_b    -1.07; 
@             H_a     0.80; H_b     0.34; H_c     0.05; H_d    -0.02; H_e    -0.05; H_f    -0.18; H_g    -0.00; H_h    -0.19; H_i    -0.05; H_j    -0.20; 
@    MULPOP    dipole moment & components:     10.6951;       -6.5705      8.4388      0.0000
   4  Level shift: doubly occupied orbital energies shifted by -2.50D-02
 -----------------------------------------------------------------------------
   5  Screening settings (-IFTHRS, JTDIIS, DIFDEN, times)  -14    5    F  7.64D+01  7.69D+01
@  5    -875.056536588        1.14936D-01   -1.11D-02    5
      Virial theorem: -V/T =      2.002734
@    MULPOP   C_a    -0.24; C_b     0.21; C_c     0.12; C_d     0.18; C_e     0.17; C_f    -0.02; C_g     0.29; C_h    -0.15; C_i     0.46; C_j    -0.16; 
@             C_k     0.20; C_l     0.05; C_m     0.02; C_n     0.11; C_o    -0.08; C_p     0.02; N_a    -0.86; N_b     0.67; O_a    -1.21; O_b    -1.09; 
@             H_a     0.80; H_b     0.35; H_c     0.05; H_d    -0.01; H_e    -0.05; H_f    -0.16; H_g     0.01; H_h    -0.18; H_i    -0.05; H_j    -0.20; 
@    MULPOP    dipole moment & components:     10.1311;       -6.3755      7.8735      0.0000
   5  Level shift: doubly occupied orbital energies shifted by -1.25D-02
 -----------------------------------------------------------------------------
   6  Screening settings (-IFTHRS, JTDIIS, DIFDEN, times)  -14    6    T  7.55D+01  7.60D+01
@  6    -875.059633440        5.86313D-02   -3.10D-03    6
      Virial theorem: -V/T =      2.002598
@    MULPOP   C_a    -0.26; C_b     0.22; C_c     0.12; C_d     0.19; C_e     0.17; C_f    -0.02; C_g     0.29; C_h    -0.15; C_i     0.45; C_j    -0.17; 
@             C_k     0.19; C_l     0.04; C_m     0.02; C_n     0.11; C_o    -0.08; C_p     0.02; N_a    -0.86; N_b     0.66; O_a    -1.20; O_b    -1.09; 
@             H_a     0.80; H_b     0.35; H_c     0.06; H_d    -0.01; H_e    -0.05; H_f    -0.16; H_g     0.01; H_h    -0.18; H_i    -0.05; H_j    -0.20; 
@    MULPOP    dipole moment & components:      9.8086;       -6.2527      7.5572      0.0000
   6  Level shift: doubly occupied orbital energies shifted by -1.25D-02
 -----------------------------------------------------------------------------
   7  Screening settings (-IFTHRS, JTDIIS, DIFDEN, times)  -14    7    T  7.55D+01  7.59D+01
@  7    -875.060597544        2.78657D-02   -9.64D-04    7
      Virial theorem: -V/T =      2.002636
@    MULPOP   C_a    -0.26; C_b     0.22; C_c     0.12; C_d     0.19; C_e     0.17; C_f    -0.02; C_g     0.29; C_h    -0.15; C_i     0.45; C_j    -0.16; 
@             C_k     0.19; C_l     0.04; C_m     0.02; C_n     0.11; C_o    -0.08; C_p     0.02; N_a    -0.87; N_b     0.67; O_a    -1.20; O_b    -1.08; 
@             H_a     0.80; H_b     0.35; H_c     0.06; H_d    -0.01; H_e    -0.05; H_f    -0.16; H_g     0.01; H_h    -0.18; H_i    -0.05; H_j    -0.20; 
@    MULPOP    dipole moment & components:      9.6008;       -6.1573      7.3663      0.0000
 -----------------------------------------------------------------------------
   8  Screening settings (-IFTHRS, JTDIIS, DIFDEN, times)  -14    8    T  7.57D+01  7.61D+01
@  8    -875.060832609        1.20942D-02   -2.35D-04    8
      Virial theorem: -V/T =      2.002631
@    MULPOP   C_a    -0.26; C_b     0.22; C_c     0.12; C_d     0.19; C_e     0.17; C_f    -0.02; C_g     0.29; C_h    -0.15; C_i     0.45; C_j    -0.16; 
@             C_k     0.19; C_l     0.04; C_m     0.02; C_n     0.11; C_o    -0.08; C_p     0.02; N_a    -0.87; N_b     0.68; O_a    -1.20; O_b    -1.08; 
@             H_a     0.80; H_b     0.36; H_c     0.06; H_d    -0.01; H_e    -0.05; H_f    -0.16; H_g     0.01; H_h    -0.18; H_i    -0.05; H_j    -0.20; 
@    MULPOP    dipole moment & components:      9.4483;       -6.1115      7.2055      0.0000
 -----------------------------------------------------------------------------
   9  Screening settings (-IFTHRS, JTDIIS, DIFDEN, times)  -14    9    T  7.48D+01  7.53D+01
@  9    -875.060866397        4.70374D-03   -3.38D-05    8
      Virial theorem: -V/T =      2.002622
@    MULPOP   C_a    -0.26; C_b     0.22; C_c     0.12; C_d     0.19; C_e     0.17; C_f    -0.02; C_g     0.29; C_h    -0.15; C_i     0.45; C_j    -0.16; 
@             C_k     0.19; C_l     0.05; C_m     0.02; C_n     0.11; C_o    -0.08; C_p     0.02; N_a    -0.87; N_b     0.68; O_a    -1.20; O_b    -1.08; 
@             H_a     0.80; H_b     0.36; H_c     0.05; H_d    -0.01; H_e    -0.05; H_f    -0.16; H_g     0.01; H_h    -0.18; H_i    -0.05; H_j    -0.20; 
@    MULPOP    dipole moment & components:      9.3801;       -6.0915      7.1330      0.0000
 -----------------------------------------------------------------------------
  10  Screening settings (-IFTHRS, JTDIIS, DIFDEN, times)  -14   10    T  7.45D+01  7.50D+01
@ 10    -875.060874572        2.64705D-03   -8.17D-06    8
      Virial theorem: -V/T =      2.002622
@    MULPOP   C_a    -0.26; C_b     0.22; C_c     0.12; C_d     0.19; C_e     0.17; C_f    -0.02; C_g     0.29; C_h    -0.15; C_i     0.45; C_j    -0.16; 
@             C_k     0.19; C_l     0.04; C_m     0.02; C_n     0.11; C_o    -0.08; C_p     0.02; N_a    -0.87; N_b     0.68; O_a    -1.20; O_b    -1.08; 
@             H_a     0.80; H_b     0.36; H_c     0.06; H_d    -0.01; H_e    -0.05; H_f    -0.16; H_g     0.01; H_h    -0.18; H_i    -0.05; H_j    -0.20; 
@    MULPOP    dipole moment & components:      9.3345;       -6.0849      7.0786      0.0000
 -----------------------------------------------------------------------------
  11  Screening settings (-IFTHRS, JTDIIS, DIFDEN, times)  -14   11    T  7.44D+01  7.46D+01
@ 11    -875.060877690        1.57474D-03   -3.12D-06    8
      Virial theorem: -V/T =      2.002623
@    MULPOP   C_a    -0.26; C_b     0.22; C_c     0.12; C_d     0.19; C_e     0.17; C_f    -0.02; C_g     0.29; C_h    -0.15; C_i     0.45; C_j    -0.16; 
@             C_k     0.19; C_l     0.04; C_m     0.02; C_n     0.11; C_o    -0.08; C_p     0.02; N_a    -0.87; N_b     0.68; O_a    -1.20; O_b    -1.08; 
@             H_a     0.80; H_b     0.36; H_c     0.06; H_d    -0.01; H_e    -0.05; H_f    -0.16; H_g     0.01; H_h    -0.18; H_i    -0.05; H_j    -0.20; 
@    MULPOP    dipole moment & components:      9.3028;       -6.0812      7.0400      0.0000
 -----------------------------------------------------------------------------
  12  Screening settings (-IFTHRS, JTDIIS, DIFDEN, times)  -14   12    T  7.41D+01  7.43D+01
@ 12    -875.060878843        5.19984D-04   -1.15D-06    8
      Virial theorem: -V/T =      2.002622
@    MULPOP   C_a    -0.26; C_b     0.22; C_c     0.12; C_d     0.19; C_e     0.17; C_f    -0.02; C_g     0.29; C_h    -0.15; C_i     0.45; C_j    -0.16; 
@             C_k     0.19; C_l     0.04; C_m     0.02; C_n     0.11; C_o    -0.08; C_p     0.02; N_a    -0.87; N_b     0.68; O_a    -1.20; O_b    -1.08; 
@             H_a     0.80; H_b     0.36; H_c     0.06; H_d    -0.01; H_e    -0.05; H_f    -0.16; H_g     0.01; H_h    -0.18; H_i    -0.05; H_j    -0.20; 
@    MULPOP    dipole moment & components:      9.2780;       -6.0790      7.0091      0.0000
 -----------------------------------------------------------------------------
  13  Screening settings (-IFTHRS, JTDIIS, DIFDEN, times)  -14   13    T  7.36D+01  7.39D+01
@ 13    -875.060878971        2.10168D-04   -1.28D-07    8
      Virial theorem: -V/T =      2.002622
@    MULPOP   C_a    -0.26; C_b     0.22; C_c     0.12; C_d     0.19; C_e     0.17; C_f    -0.02; C_g     0.29; C_h    -0.15; C_i     0.45; C_j    -0.16; 
@             C_k     0.19; C_l     0.05; C_m     0.02; C_n     0.11; C_o    -0.08; C_p     0.02; N_a    -0.87; N_b     0.68; O_a    -1.20; O_b    -1.08; 
@             H_a     0.80; H_b     0.36; H_c     0.06; H_d    -0.01; H_e    -0.05; H_f    -0.16; H_g     0.01; H_h    -0.18; H_i    -0.05; H_j    -0.20; 
@    MULPOP    dipole moment & components:      9.2694;       -6.0784      6.9982      0.0000
 -----------------------------------------------------------------------------
  14  Screening settings (-IFTHRS, JTDIIS, DIFDEN, times)  -14   14    T  7.31D+01  7.33D+01
@ 14    -875.060878980        9.40614D-05   -9.59D-09    8
      Virial theorem: -V/T =      2.002622
@    MULPOP   C_a    -0.26; C_b     0.22; C_c     0.12; C_d     0.19; C_e     0.17; C_f    -0.02; C_g     0.29; C_h    -0.15; C_i     0.45; C_j    -0.16; 
@             C_k     0.19; C_l     0.05; C_m     0.02; C_n     0.11; C_o    -0.08; C_p     0.02; N_a    -0.87; N_b     0.68; O_a    -1.20; O_b    -1.08; 
@             H_a     0.80; H_b     0.36; H_c     0.06; H_d    -0.01; H_e    -0.05; H_f    -0.16; H_g     0.01; H_h    -0.18; H_i    -0.05; H_j    -0.20; 
@    MULPOP    dipole moment & components:      9.2682;       -6.0785      6.9966      0.0000
 -----------------------------------------------------------------------------
  15  Screening settings (-IFTHRS, JTDIIS, DIFDEN, times)  -14   15    T  7.22D+01  7.24D+01
@ 15    -875.060878982        4.29945D-05   -2.00D-09    8
      Virial theorem: -V/T =      2.002622
@    MULPOP   C_a    -0.26; C_b     0.22; C_c     0.12; C_d     0.19; C_e     0.17; C_f    -0.02; C_g     0.29; C_h    -0.15; C_i     0.45; C_j    -0.16; 
@             C_k     0.19; C_l     0.05; C_m     0.02; C_n     0.11; C_o    -0.08; C_p     0.02; N_a    -0.87; N_b     0.68; O_a    -1.20; O_b    -1.08; 
@             H_a     0.80; H_b     0.36; H_c     0.06; H_d    -0.01; H_e    -0.05; H_f    -0.16; H_g     0.01; H_h    -0.18; H_i    -0.05; H_j    -0.20; 
@    MULPOP    dipole moment & components:      9.2675;       -6.0785      6.9957      0.0000
 -----------------------------------------------------------------------------
  16  Screening settings (-IFTHRS, JTDIIS, DIFDEN, times)  -14   16    T  7.19D+01  7.21D+01
@ 16    -875.060878982        1.84564D-05   -2.87D-10    8
      Virial theorem: -V/T =      2.002622
@    MULPOP   C_a    -0.26; C_b     0.22; C_c     0.12; C_d     0.19; C_e     0.17; C_f    -0.02; C_g     0.29; C_h    -0.15; C_i     0.45; C_j    -0.16; 
@             C_k     0.19; C_l     0.05; C_m     0.02; C_n     0.11; C_o    -0.08; C_p     0.02; N_a    -0.87; N_b     0.68; O_a    -1.20; O_b    -1.08; 
@             H_a     0.80; H_b     0.36; H_c     0.06; H_d    -0.01; H_e    -0.05; H_f    -0.16; H_g     0.01; H_h    -0.18; H_i    -0.05; H_j    -0.20; 
@    MULPOP    dipole moment & components:      9.2674;       -6.0785      6.9955      0.0000
 -----------------------------------------------------------------------------
  17  Screening settings (-IFTHRS, JTDIIS, DIFDEN, times)  -14   17    T  7.18D+01  7.21D+01
@ 17    -875.060878983        1.15395D-05   -9.37D-11    8
      Virial theorem: -V/T =      2.002622
@    MULPOP   C_a    -0.26; C_b     0.22; C_c     0.12; C_d     0.19; C_e     0.17; C_f    -0.02; C_g     0.29; C_h    -0.15; C_i     0.45; C_j    -0.16; 
@             C_k     0.19; C_l     0.05; C_m     0.02; C_n     0.11; C_o    -0.08; C_p     0.02; N_a    -0.87; N_b     0.68; O_a    -1.20; O_b    -1.08; 
@             H_a     0.80; H_b     0.36; H_c     0.06; H_d    -0.01; H_e    -0.05; H_f    -0.16; H_g     0.01; H_h    -0.18; H_i    -0.05; H_j    -0.20; 
@    MULPOP    dipole moment & components:      9.2674;       -6.0785      6.9955      0.0000
 -----------------------------------------------------------------------------
  18  Screening settings (-IFTHRS, JTDIIS, DIFDEN, times)  -14   18    T  7.21D+01  7.24D+01
@ 18    -875.060878983        5.42867D-06   -3.50D-11    8

@ *** DIIS converged in  18 iterations !
@     Converged SCF energy, gradient:   -875.060878982566    5.43D-06
    - total time used in SIRFCK :              0.00 seconds


 *** SCF orbital energy analysis ***

 Only the 20 lowest virtual orbital energies printed in each symmetry.

 Number of electrons :  144
 Orbital occupations :   72

 Sym       Hartree-Fock orbital energies

1 A     -20.58518662   -20.58235690   -15.83569461   -15.59595817   -11.30679769
        -11.28717202   -11.28545988   -11.27622873   -11.26806035   -11.26201576
        -11.25774517   -11.25735225   -11.25629294   -11.25439708   -11.25112734
        -11.24729563   -11.24302868   -11.23818525   -11.23295724   -11.23027681
         -1.57558801    -1.37343126    -1.24097129    -1.14062567    -1.12417766
         -1.11091925    -1.09299221    -1.06916432    -1.04004695    -1.00619669
         -0.96823362    -0.93560815    -0.87899986    -0.83892435    -0.80619794
         -0.78652113    -0.78062596    -0.77178236    -0.76148292    -0.75761996
         -0.73247994    -0.72095740    -0.70925744    -0.69354171    -0.68463399
         -0.66749754    -0.65753031    -0.64149023    -0.62362066    -0.60710283
         -0.59870699    -0.57472063    -0.56893463    -0.55557736    -0.54020549
         -0.53900544    -0.52847834    -0.52820363    -0.51893931    -0.51147514
         -0.50294751    -0.49603797    -0.47890828    -0.47831290    -0.47584399
         -0.45613598    -0.43697462    -0.42494636    -0.38590731    -0.33978033
         -0.28861682    -0.23752525    -0.00051395     0.00400515     0.00646365
          0.00860576     0.01023030     0.01133057     0.01206360     0.01342713
          0.01528461     0.01781950     0.01860977     0.01938688     0.01996093
          0.02183239     0.02300361     0.02362234     0.02508407     0.02531680
          0.02763885     0.02784316

    E(LUMO) :    -0.00051395 au (symmetry 1)
  - E(HOMO) :    -0.23752525 au (symmetry 1)
  ------------------------------------------
    gap     :     0.23701130 au

 --- Writing SIRIFC interface file

 CPU and wall time for SCF :    2027.549    2037.182


                       .-----------------------------------.
                       | --- Final results from SIRIUS --- |
                       `-----------------------------------'


@    Spin multiplicity:           1
@    Spatial symmetry:            1 ( irrep  A   in C1  )
@    Total charge of molecule:    0

@    Final HF energy:            -875.060878982566                 
@    Nuclear repulsion:          1124.842995138595
@    Electronic energy:         -1999.903874121160

@    Final gradient norm:           0.000005428667

 
     Date and time (Linux)  : Fri May 30 18:21:51 2025
     Host name              : xm052                                   

File label for MO orbitals:  30May25   FOCKDIIS

 (Only coefficients > 0.0100 are printed.)

 Molecular orbitals for symmetry species 1  (A  )
 ------------------------------------------------

    Orbital        63       64       65       66       67       68       69
   2 C_a :1s     0.0000   0.1038   0.0204  -0.0000  -0.0000  -0.0000  -0.0000
   4 C_a :1s     0.0000   0.3366  -0.1251   0.0000  -0.0000  -0.0000  -0.0000
   5 C_a :1s    -0.0000  -0.0971   0.0294   0.0000   0.0000   0.0000  -0.0000
   6 C_a :1s     0.0000  -0.0089  -0.1118   0.0000  -0.0000   0.0000   0.0000
   7 C_a :2px   -0.0000   0.1928   0.1659   0.0000  -0.0000  -0.0000  -0.0000
   8 C_a :2py    0.0000  -0.2440  -0.0183  -0.0000  -0.0000  -0.0000  -0.0000
   9 C_a :2pz    0.1644  -0.0000  -0.0000   0.2137  -0.0082   0.2593  -0.2881
  11 C_a :2py   -0.0000   0.0185   0.0012  -0.0000   0.0000   0.0000   0.0000
  13 C_a :2px   -0.0000   0.1794  -0.0045   0.0000   0.0000   0.0000  -0.0000
  14 C_a :2py   -0.0000   0.1362   0.0811   0.0000   0.0000   0.0000   0.0000
  15 C_a :2pz    0.0276  -0.0000   0.0000   0.0099  -0.0041   0.0320  -0.0364
  16 C_a :2px   -0.0000   0.2487  -0.2320   0.0000  -0.0000  -0.0000  -0.0000
  17 C_a :2py    0.0000   0.0419  -0.1026   0.0000  -0.0000   0.0000   0.0000
  18 C_a :2pz    0.0834  -0.0000   0.0000  -0.1226  -0.2297   0.0477   0.0196
  19 C_a :2px    0.0000  -0.0500  -0.0364  -0.0000  -0.0000   0.0000   0.0000
  20 C_a :2py   -0.0000   0.0379   0.1254  -0.0000   0.0000  -0.0000  -0.0000
  21 C_a :2pz   -0.0071  -0.0000   0.0000   0.0023  -0.0248  -0.0073   0.0062
  22 C_a :3d2-   0.0000  -0.0109  -0.0038  -0.0000   0.0000   0.0000   0.0000
  28 C_a :3d1-   0.0088   0.0000   0.0000   0.0110   0.0018   0.0114  -0.0105
  31 C_a :3d2+  -0.0000  -0.0000   0.0219   0.0000   0.0000  -0.0000  -0.0000
  32 C_a :3d2-  -0.0000   0.0992  -0.0304   0.0000   0.0000   0.0000   0.0000
  33 C_a :3d1-   0.0180   0.0000  -0.0000   0.0114  -0.0202   0.0281  -0.0225
  34 C_a :3d0   -0.0000   0.0654   0.0078   0.0000   0.0000   0.0000   0.0000
  35 C_a :3d1+   0.0123   0.0000   0.0000   0.0115  -0.0118   0.0112  -0.0107
  36 C_a :3d2+  -0.0000   0.0551   0.0735   0.0000  -0.0000  -0.0000  -0.0000
  37 C_a :3d2-   0.0000   0.1241   0.0486   0.0000  -0.0000  -0.0000  -0.0000
  38 C_a :3d1-   0.0103  -0.0000   0.0000  -0.0189   0.0261   0.0061   0.0108
  39 C_a :3d0   -0.0000   0.0391   0.0639   0.0000   0.0000  -0.0000  -0.0000
  40 C_a :3d1+   0.0061   0.0000  -0.0000  -0.0284   0.0425  -0.0094   0.0202
  41 C_a :3d2+  -0.0000  -0.1972   0.1114   0.0000   0.0000  -0.0000  -0.0000
  55 C_a :4f3+  -0.0000  -0.0092   0.0151   0.0000   0.0000   0.0000   0.0000
  56 C_a :4f3-  -0.0000  -0.0025   0.0281   0.0000   0.0000   0.0000   0.0000
  57 C_a :4f2-   0.0036  -0.0000  -0.0000   0.0027   0.0176  -0.0010   0.0019
  58 C_a :4f1-  -0.0000  -0.0162   0.0006   0.0000   0.0000   0.0000   0.0000
  60 C_a :4f1+  -0.0000   0.0284   0.0057   0.0000   0.0000   0.0000  -0.0000
  62 C_a :4f3+   0.0000  -0.0895   0.0634  -0.0000  -0.0000  -0.0000  -0.0000
  64 C_b :1s     0.0000  -0.0351   0.0478   0.0000   0.0000   0.0000   0.0000
  66 C_b :1s     0.0000  -0.1498   0.1426  -0.0000   0.0000   0.0000  -0.0000
  67 C_b :1s    -0.0000  -0.0157   0.0258  -0.0000   0.0000  -0.0000  -0.0000
  68 C_b :1s    -0.0000  -0.0315  -0.0050  -0.0000  -0.0000  -0.0000   0.0000
  69 C_b :2px   -0.0000  -0.0245   0.0695   0.0000  -0.0000  -0.0000   0.0000
  70 C_b :2py   -0.0000   0.1601  -0.0287  -0.0000   0.0000   0.0000   0.0000
  71 C_b :2pz    0.2102  -0.0000  -0.0000   0.2413   0.0010   0.2421  -0.2058
  75 C_b :2px    0.0000  -0.1584  -0.0434  -0.0000  -0.0000   0.0000  -0.0000
  76 C_b :2py   -0.0000   0.1200   0.0280   0.0000  -0.0000   0.0000  -0.0000
  77 C_b :2pz    0.0100   0.0000  -0.0000   0.0026  -0.0138  -0.0005  -0.0123
  78 C_b :2px   -0.0000   0.0482  -0.0477  -0.0000  -0.0000  -0.0000   0.0000
  79 C_b :2py   -0.0000  -0.0836  -0.0009  -0.0000   0.0000   0.0000   0.0000
  80 C_b :2pz    0.0601  -0.0000  -0.0000   0.0729   0.2094   0.1148  -0.0935
  81 C_b :2px   -0.0000  -0.0452   0.0935  -0.0000   0.0000  -0.0000  -0.0000
  82 C_b :2py   -0.0000  -0.0625  -0.1031  -0.0000  -0.0000   0.0000   0.0000
  83 C_b :2pz   -0.0212   0.0000  -0.0000  -0.0157   0.0521  -0.0161   0.0064
  90 C_b :3d1-  -0.0012  -0.0000   0.0000  -0.0040   0.0002  -0.0090   0.0151
  94 C_b :3d2-  -0.0000   0.1828   0.0313   0.0000  -0.0000   0.0000  -0.0000
  95 C_b :3d1-   0.0463  -0.0000   0.0000   0.0309   0.0042   0.0541  -0.0417
  96 C_b :3d0    0.0000  -0.0348   0.0051  -0.0000  -0.0000  -0.0000  -0.0000
  97 C_b :3d1+  -0.0228  -0.0000   0.0000  -0.0215  -0.0167  -0.0129   0.0150
  98 C_b :3d2+   0.0000  -0.0642  -0.0867  -0.0000   0.0000  -0.0000  -0.0000
  99 C_b :3d2-  -0.0000  -0.1257  -0.0657   0.0000   0.0000   0.0000   0.0000
 100 C_b :3d1-   0.0407   0.0000  -0.0000  -0.0430   0.0299   0.0172  -0.0065
 101 C_b :3d0    0.0000  -0.0068  -0.0520  -0.0000  -0.0000   0.0000  -0.0000
 102 C_b :3d1+  -0.0270   0.0000  -0.0000   0.0127   0.0055  -0.0276   0.0040
 103 C_b :3d2+   0.0000   0.1226  -0.0395  -0.0000  -0.0000   0.0000  -0.0000
 117 C_b :4f3+   0.0000   0.0073   0.0125   0.0000  -0.0000  -0.0000  -0.0000
 118 C_b :4f3-   0.0000  -0.1069   0.0438  -0.0000  -0.0000   0.0000   0.0000
 119 C_b :4f2-  -0.0131  -0.0000   0.0000  -0.0054   0.0134  -0.0106   0.0052
 123 C_b :4f2+   0.0037  -0.0000   0.0000  -0.0005  -0.0344  -0.0047  -0.0006
 124 C_b :4f3+  -0.0000   0.0432   0.0385   0.0000   0.0000  -0.0000  -0.0000
 126 C_c :1s    -0.0000   0.0362  -0.0053   0.0000   0.0000   0.0000  -0.0000
 128 C_c :1s    -0.0000   0.0410  -0.0291  -0.0000   0.0000   0.0000  -0.0000
 129 C_c :1s    -0.0000   0.0702   0.0199   0.0000   0.0000  -0.0000  -0.0000
 130 C_c :1s    -0.0000  -0.0005  -0.0881   0.0000  -0.0000  -0.0000   0.0000
 131 C_c :2px    0.0000   0.0516  -0.0551  -0.0000   0.0000   0.0000   0.0000
 132 C_c :2py   -0.0000  -0.1077  -0.0042   0.0000  -0.0000  -0.0000   0.0000
 133 C_c :2pz    0.2421  -0.0000   0.0000   0.1969  -0.0104   0.0766   0.0911
 137 C_c :2px    0.0000  -0.0502  -0.1001   0.0000  -0.0000   0.0000   0.0000
 138 C_c :2py    0.0000  -0.1117   0.0112  -0.0000  -0.0000  -0.0000   0.0000
 139 C_c :2pz    0.0069   0.0000   0.0000  -0.0120  -0.0237  -0.0156   0.0209
 140 C_c :2px    0.0000  -0.0162  -0.0731  -0.0000   0.0000   0.0000  -0.0000
 141 C_c :2py   -0.0000  -0.0432  -0.1243  -0.0000  -0.0000   0.0000   0.0000
 142 C_c :2pz    0.0793  -0.0000   0.0000   0.1064  -0.1087   0.0896  -0.0296
 143 C_c :2px   -0.0000   0.0796  -0.0162   0.0000  -0.0000  -0.0000   0.0000
 144 C_c :2py    0.0000   0.0397  -0.0099   0.0000   0.0000   0.0000   0.0000
 145 C_c :2pz    0.0142  -0.0000  -0.0000   0.0121  -0.0102   0.0218  -0.0400
 152 C_c :3d1-   0.0054   0.0000  -0.0000   0.0007  -0.0002  -0.0068   0.0133
 156 C_c :3d2-  -0.0000   0.0386  -0.0418   0.0000   0.0000   0.0000  -0.0000
 157 C_c :3d1-   0.0730   0.0000  -0.0000   0.0508  -0.0450   0.0347  -0.0163
 158 C_c :3d0    0.0000   0.0176  -0.0303  -0.0000   0.0000   0.0000  -0.0000
 159 C_c :3d1+  -0.0149   0.0000   0.0000  -0.0150  -0.0073  -0.0183   0.0074
 160 C_c :3d2+   0.0000  -0.0665  -0.0369  -0.0000   0.0000   0.0000   0.0000
 161 C_c :3d2-   0.0000   0.1505  -0.0082  -0.0000  -0.0000   0.0000  -0.0000
 162 C_c :3d1-   0.0870  -0.0000   0.0000  -0.0052  -0.1294   0.1074  -0.0165
 163 C_c :3d0   -0.0000  -0.0538   0.0577  -0.0000   0.0000   0.0000   0.0000
 164 C_c :3d1+  -0.0192   0.0000  -0.0000   0.0301  -0.0129  -0.0201  -0.0097
 165 C_c :3d2+  -0.0000  -0.0622   0.0349   0.0000   0.0000   0.0000   0.0000
 180 C_c :4f3-   0.0000  -0.0355  -0.0741   0.0000  -0.0000   0.0000   0.0000
 182 C_c :4f1-   0.0000  -0.0444  -0.0075  -0.0000  -0.0000  -0.0000   0.0000
 184 C_c :4f1+   0.0000   0.0078  -0.0132   0.0000   0.0000   0.0000  -0.0000
 185 C_c :4f2+  -0.0181   0.0000  -0.0000  -0.0124  -0.0094  -0.0094  -0.0025
 186 C_c :4f3+   0.0000   0.0033   0.0424  -0.0000  -0.0000  -0.0000  -0.0000
 188 C_d :1s     0.0000  -0.0243  -0.0097  -0.0000  -0.0000  -0.0000  -0.0000
 190 C_d :1s    -0.0000   0.1886  -0.0055   0.0000  -0.0000  -0.0000   0.0000
 192 C_d :1s     0.0000   0.0082   0.1369  -0.0000   0.0000  -0.0000  -0.0000
 193 C_d :2px    0.0000  -0.0192   0.0214  -0.0000   0.0000   0.0000  -0.0000
 194 C_d :2py    0.0000   0.0827   0.0150   0.0000  -0.0000  -0.0000   0.0000
 195 C_d :2pz    0.2064  -0.0000  -0.0000   0.0929  -0.0138  -0.0766   0.2185
 199 C_d :2px    0.0000  -0.0504   0.0957  -0.0000  -0.0000  -0.0000   0.0000
 200 C_d :2py    0.0000  -0.0048  -0.0665  -0.0000  -0.0000   0.0000   0.0000
 201 C_d :2pz    0.0003   0.0000   0.0000  -0.0162   0.0348   0.0239  -0.0178
 202 C_d :2px    0.0000  -0.0550   0.0780  -0.0000   0.0000   0.0000  -0.0000
 203 C_d :2py    0.0000  -0.0444  -0.0153  -0.0000  -0.0000  -0.0000  -0.0000
 204 C_d :2pz    0.0132   0.0000  -0.0000   0.0591   0.1323  -0.0701   0.1121
 205 C_d :2px    0.0000   0.0318  -0.0272  -0.0000  -0.0000   0.0000  -0.0000
 206 C_d :2py    0.0000   0.0418  -0.0058  -0.0000  -0.0000   0.0000  -0.0000
 207 C_d :2pz    0.0288  -0.0000   0.0000   0.0245  -0.0528   0.0247  -0.0146
 218 C_d :3d2-  -0.0000   0.0750  -0.0884   0.0000  -0.0000   0.0000   0.0000
 219 C_d :3d1-   0.0876   0.0000   0.0000   0.0307  -0.0293   0.0231   0.0118
 220 C_d :3d0   -0.0000   0.0452   0.0267   0.0000   0.0000   0.0000   0.0000
 221 C_d :3d1+  -0.0278  -0.0000  -0.0000  -0.0056  -0.0002  -0.0178   0.0199
 222 C_d :3d2+  -0.0000   0.0102  -0.0071   0.0000   0.0000  -0.0000  -0.0000
 223 C_d :3d2-  -0.0000   0.0260   0.0090   0.0000  -0.0000  -0.0000  -0.0000
 224 C_d :3d1-   0.0793   0.0000  -0.0000   0.0484   0.1137   0.0817  -0.0483
 225 C_d :3d0    0.0000  -0.0154   0.0444   0.0000  -0.0000  -0.0000   0.0000
 226 C_d :3d1+  -0.0166  -0.0000   0.0000  -0.0287  -0.0583   0.0046   0.0016
 227 C_d :3d2+   0.0000  -0.0117   0.0887  -0.0000  -0.0000  -0.0000   0.0000
 242 C_d :4f3-   0.0000   0.0178   0.0256  -0.0000  -0.0000   0.0000   0.0000
 243 C_d :4f2-  -0.0250  -0.0000   0.0000  -0.0039   0.0250   0.0035  -0.0142
 244 C_d :4f1-  -0.0000  -0.0007  -0.0205   0.0000   0.0000   0.0000   0.0000
 245 C_d :4f0   -0.0086  -0.0000   0.0000  -0.0071   0.0074   0.0078  -0.0129
 247 C_d :4f2+   0.0001   0.0000   0.0000  -0.0057   0.0064   0.0139  -0.0282
 248 C_d :4f3+  -0.0000   0.0559   0.0400  -0.0000  -0.0000  -0.0000   0.0000
 250 C_e :1s     0.0000   0.0178  -0.0053  -0.0000   0.0000   0.0000   0.0000
 252 C_e :1s    -0.0000  -0.0795  -0.0491   0.0000   0.0000   0.0000   0.0000
 254 C_e :1s     0.0000   0.0105   0.0346   0.0000  -0.0000   0.0000  -0.0000
 255 C_e :2px    0.0000   0.0324  -0.0084   0.0000  -0.0000  -0.0000   0.0000
 256 C_e :2py    0.0000  -0.0514   0.0066  -0.0000   0.0000   0.0000  -0.0000
 257 C_e :2pz    0.1101  -0.0000  -0.0000  -0.0998  -0.0145  -0.2586   0.2111
 261 C_e :2px   -0.0000  -0.0414   0.0412  -0.0000  -0.0000  -0.0000  -0.0000
 262 C_e :2py   -0.0000   0.0542  -0.0113   0.0000   0.0000  -0.0000  -0.0000
 263 C_e :2pz   -0.0095   0.0000   0.0000   0.0007   0.0354   0.0162  -0.0316
 264 C_e :2px   -0.0000  -0.0963   0.0750   0.0000   0.0000  -0.0000  -0.0000
 265 C_e :2py   -0.0000   0.0386   0.0716   0.0000   0.0000  -0.0000  -0.0000
 266 C_e :2pz    0.0537   0.0000  -0.0000  -0.0690  -0.1016  -0.0929   0.1532
 267 C_e :2px    0.0000  -0.0756   0.0175  -0.0000   0.0000   0.0000  -0.0000
 268 C_e :2py    0.0000  -0.0145  -0.0327  -0.0000  -0.0000  -0.0000   0.0000
 269 C_e :2pz   -0.0178   0.0000   0.0000  -0.0219   0.0398  -0.0239   0.0629
 280 C_e :3d2-  -0.0000   0.0933   0.0431  -0.0000  -0.0000  -0.0000  -0.0000
 281 C_e :3d1-   0.1142   0.0000   0.0000   0.0187   0.0020   0.0328  -0.0150
 282 C_e :3d0   -0.0000  -0.0273  -0.0132   0.0000  -0.0000  -0.0000  -0.0000
 283 C_e :3d1+  -0.0332  -0.0000   0.0000   0.0018   0.0127   0.0050  -0.0271
 285 C_e :3d2-   0.0000   0.0391  -0.0825  -0.0000  -0.0000  -0.0000   0.0000
 286 C_e :3d1-   0.1137  -0.0000   0.0000   0.0352  -0.0707   0.0421   0.0594
 287 C_e :3d0   -0.0000   0.0414  -0.1207  -0.0000  -0.0000   0.0000  -0.0000
 288 C_e :3d1+  -0.0110   0.0000  -0.0000  -0.0288   0.0047  -0.0210   0.0065
 289 C_e :3d2+   0.0000   0.1250  -0.0795  -0.0000  -0.0000   0.0000  -0.0000
 304 C_e :4f3-  -0.0000   0.0237  -0.0156   0.0000  -0.0000   0.0000   0.0000
 305 C_e :4f2-   0.0138  -0.0000   0.0000   0.0044   0.0103   0.0230  -0.0242
 307 C_e :4f0   -0.0065  -0.0000   0.0000   0.0060   0.0100   0.0160  -0.0160
 309 C_e :4f2+  -0.0187  -0.0000   0.0000   0.0160   0.0092   0.0239  -0.0319
 310 C_e :4f3+  -0.0000   0.0703   0.0653  -0.0000   0.0000  -0.0000  -0.0000
 314 C_f :1s     0.0000  -0.0170  -0.0533  -0.0000   0.0000   0.0000  -0.0000
 315 C_f :1s    -0.0000   0.0099   0.0456   0.0000   0.0000  -0.0000   0.0000
 316 C_f :1s     0.0000   0.0202  -0.0045  -0.0000  -0.0000  -0.0000  -0.0000
 317 C_f :2px   -0.0000  -0.0132  -0.0008   0.0000  -0.0000  -0.0000   0.0000
 318 C_f :2py   -0.0000   0.0382  -0.0006   0.0000  -0.0000  -0.0000  -0.0000
 319 C_f :2pz    0.0236  -0.0000  -0.0000  -0.1987  -0.0082  -0.2496   0.0523
 323 C_f :2px   -0.0000  -0.0139  -0.0210  -0.0000   0.0000   0.0000  -0.0000
 324 C_f :2py   -0.0000  -0.0299   0.0103  -0.0000  -0.0000  -0.0000  -0.0000
 325 C_f :2pz   -0.0094   0.0000   0.0000   0.0220  -0.0029   0.0112   0.0131
 326 C_f :2px   -0.0000  -0.1119   0.0974   0.0000   0.0000  -0.0000   0.0000
 327 C_f :2py   -0.0000   0.0602  -0.0469   0.0000  -0.0000  -0.0000  -0.0000
 328 C_f :2pz    0.0250  -0.0000  -0.0000  -0.0956  -0.0384  -0.0955   0.0784
 329 C_f :2px   -0.0000  -0.0061   0.0193   0.0000   0.0000  -0.0000   0.0000
 330 C_f :2py   -0.0000  -0.0160  -0.0237   0.0000  -0.0000  -0.0000   0.0000
 331 C_f :2pz   -0.0136   0.0000  -0.0000  -0.0122   0.0143  -0.0158   0.0200
 338 C_f :3d1-  -0.0047  -0.0000   0.0000  -0.0009   0.0013   0.0097  -0.0157
 342 C_f :3d2-  -0.0000   0.0474  -0.0105  -0.0000  -0.0000   0.0000  -0.0000
 343 C_f :3d1-   0.1121   0.0000   0.0000   0.0200   0.0062   0.0221  -0.0243
 344 C_f :3d0    0.0000   0.0132  -0.0056  -0.0000   0.0000   0.0000   0.0000
 345 C_f :3d1+  -0.0222  -0.0000  -0.0000  -0.0190  -0.0016  -0.0178   0.0104
 346 C_f :3d2+   0.0000  -0.0408   0.0199  -0.0000   0.0000   0.0000   0.0000
 347 C_f :3d2-   0.0000   0.0123   0.0888  -0.0000  -0.0000   0.0000   0.0000
 348 C_f :3d1-   0.1189  -0.0000  -0.0000  -0.0058  -0.0132   0.0151   0.1001
 349 C_f :3d0   -0.0000  -0.0066   0.0306  -0.0000   0.0000   0.0000  -0.0000
 350 C_f :3d1+  -0.0535   0.0000  -0.0000   0.0212  -0.0032  -0.0061  -0.0262
 351 C_f :3d2+   0.0000  -0.1081  -0.0441  -0.0000   0.0000   0.0000   0.0000
 366 C_f :4f3-   0.0000   0.0058  -0.0256  -0.0000   0.0000   0.0000   0.0000
 367 C_f :4f2-  -0.0206  -0.0000  -0.0000   0.0153   0.0003   0.0055   0.0015
 368 C_f :4f1-  -0.0000  -0.0130  -0.0031   0.0000  -0.0000  -0.0000  -0.0000
 369 C_f :4f0   -0.0058   0.0000  -0.0000   0.0137   0.0025   0.0130  -0.0022
 371 C_f :4f2+  -0.0004   0.0000   0.0000   0.0216   0.0033   0.0274  -0.0112
 372 C_f :4f3+  -0.0000   0.0162  -0.0050   0.0000  -0.0000  -0.0000  -0.0000
 376 C_g :1s    -0.0000   0.0301   0.0375   0.0000  -0.0000  -0.0000   0.0000
 377 C_g :1s     0.0000   0.0084  -0.0327  -0.0000  -0.0000  -0.0000   0.0000
 378 C_g :1s    -0.0000  -0.0571  -0.0013  -0.0000   0.0000   0.0000   0.0000
 379 C_g :2px   -0.0000   0.0175   0.0007   0.0000  -0.0000   0.0000  -0.0000
 380 C_g :2py    0.0000  -0.0267   0.0017   0.0000   0.0000  -0.0000   0.0000
 381 C_g :2pz   -0.1069  -0.0000  -0.0000  -0.2709   0.0059  -0.0823  -0.2308
 385 C_g :2px    0.0000  -0.0024   0.0191  -0.0000   0.0000   0.0000   0.0000
 386 C_g :2py    0.0000  -0.0409   0.0441  -0.0000   0.0000   0.0000   0.0000
 387 C_g :2pz    0.0019   0.0000   0.0000   0.0038  -0.0120   0.0160   0.0155
 388 C_g :2px   -0.0000   0.0133  -0.0377   0.0000   0.0000   0.0000  -0.0000
 389 C_g :2py    0.0000  -0.0233  -0.0363   0.0000   0.0000   0.0000  -0.0000
 390 C_g :2pz   -0.0333  -0.0000  -0.0000  -0.0388   0.0907  -0.0017  -0.1579
 391 C_g :2px   -0.0000   0.0263  -0.0026   0.0000  -0.0000  -0.0000   0.0000
 392 C_g :2py    0.0000  -0.0036   0.0359   0.0000   0.0000   0.0000   0.0000
 393 C_g :2pz    0.0082  -0.0000  -0.0000   0.0091  -0.0168   0.0046  -0.0384
 400 C_g :3d1-  -0.0052  -0.0000  -0.0000  -0.0055   0.0006   0.0076  -0.0124
 402 C_g :3d1+  -0.0035  -0.0000  -0.0000  -0.0102   0.0002  -0.0050  -0.0045
 404 C_g :3d2-  -0.0000   0.0175  -0.0127   0.0000   0.0000   0.0000   0.0000
 405 C_g :3d1-   0.1082   0.0000   0.0000  -0.0062  -0.0083   0.0139  -0.0087
 406 C_g :3d0   -0.0000   0.0141   0.0069  -0.0000  -0.0000   0.0000   0.0000
 407 C_g :3d1+  -0.0372   0.0000  -0.0000   0.0036  -0.0046   0.0043   0.0202
 408 C_g :3d2+  -0.0000   0.0235   0.0109   0.0000   0.0000   0.0000   0.0000
 409 C_g :3d2-  -0.0000  -0.0182  -0.0278  -0.0000  -0.0000  -0.0000  -0.0000
 410 C_g :3d1-   0.1333  -0.0000  -0.0000  -0.0294   0.0063  -0.0175   0.0543
 411 C_g :3d0    0.0000   0.0011   0.0386   0.0000  -0.0000  -0.0000  -0.0000
 412 C_g :3d1+  -0.0358  -0.0000   0.0000   0.0022   0.0007   0.0110  -0.0364
 413 C_g :3d2+   0.0000   0.0217  -0.0386   0.0000  -0.0000  -0.0000   0.0000
 428 C_g :4f3-   0.0000  -0.0263  -0.0310   0.0000  -0.0000   0.0000   0.0000
 429 C_g :4f2-   0.0148   0.0000   0.0000   0.0093   0.0002   0.0156   0.0119
 431 C_g :4f0    0.0040   0.0000   0.0000   0.0129  -0.0051   0.0058   0.0154
 433 C_g :4f2+  -0.0087   0.0000  -0.0000   0.0215  -0.0077   0.0031   0.0282
 434 C_g :4f3+   0.0000   0.0183   0.0027  -0.0000   0.0000   0.0000   0.0000
 438 C_h :1s     0.0000   0.0545  -0.0052   0.0000   0.0000   0.0000   0.0000
 439 C_h :1s     0.0000  -0.0003  -0.0293  -0.0000   0.0000   0.0000   0.0000
 440 C_h :1s    -0.0000   0.0302  -0.0179   0.0000   0.0000  -0.0000  -0.0000
 442 C_h :2py    0.0000   0.0192  -0.0016  -0.0000   0.0000   0.0000  -0.0000
 443 C_h :2pz   -0.1809  -0.0000  -0.0000  -0.2399   0.0132   0.0729  -0.2628
 447 C_h :2px    0.0000  -0.0424   0.0259  -0.0000   0.0000   0.0000   0.0000
 448 C_h :2py   -0.0000   0.0001   0.0565   0.0000   0.0000   0.0000   0.0000
 449 C_h :2pz    0.0044   0.0000   0.0000   0.0061  -0.0081  -0.0163   0.0272
 450 C_h :2px   -0.0000   0.0259  -0.0813  -0.0000  -0.0000   0.0000   0.0000
 451 C_h :2py    0.0000  -0.0128   0.0532   0.0000   0.0000   0.0000   0.0000
 452 C_h :2pz   -0.0497  -0.0000  -0.0000  -0.0515  -0.0383  -0.0100  -0.1727
 453 C_h :2px   -0.0000  -0.0045  -0.0215  -0.0000  -0.0000  -0.0000  -0.0000
 454 C_h :2py    0.0000   0.0285   0.0194  -0.0000   0.0000   0.0000  -0.0000
 455 C_h :2pz   -0.0057   0.0000   0.0000  -0.0025   0.0027  -0.0039  -0.0211
 466 C_h :3d2-  -0.0000   0.0045  -0.0217   0.0000   0.0000   0.0000   0.0000
 467 C_h :3d1-   0.1163   0.0000   0.0000  -0.0369  -0.0167   0.0198   0.0060
 469 C_h :3d1+  -0.0142  -0.0000  -0.0000   0.0057   0.0090   0.0037  -0.0292
 470 C_h :3d2+   0.0000   0.0103   0.0092   0.0000  -0.0000  -0.0000   0.0000
 471 C_h :3d2-   0.0000   0.0332  -0.0742  -0.0000  -0.0000  -0.0000   0.0000
 472 C_h :3d1-   0.1230  -0.0000   0.0000  -0.0504  -0.0424   0.0001   0.0262
 473 C_h :3d0    0.0000   0.0037  -0.0228  -0.0000   0.0000   0.0000   0.0000
 474 C_h :3d1+  -0.0096   0.0000   0.0000   0.0228   0.0095   0.0067   0.0117
 475 C_h :3d2+  -0.0000   0.0186   0.0193   0.0000   0.0000   0.0000  -0.0000
 490 C_h :4f3-   0.0000   0.0072  -0.0125   0.0000  -0.0000  -0.0000   0.0000
 491 C_h :4f2-  -0.0155  -0.0000  -0.0000   0.0136   0.0028  -0.0152   0.0162
 493 C_h :4f0    0.0056   0.0000   0.0000   0.0122  -0.0034  -0.0061   0.0184
 495 C_h :4f2+   0.0067   0.0000   0.0000   0.0178  -0.0078  -0.0052   0.0343
 496 C_h :4f3+  -0.0000  -0.0081   0.0185   0.0000   0.0000  -0.0000  -0.0000
 500 C_i :1s     0.0000  -0.0802  -0.0094  -0.0000  -0.0000   0.0000   0.0000
 501 C_i :1s    -0.0000   0.0139   0.0384   0.0000   0.0000  -0.0000   0.0000
 502 C_i :1s     0.0000  -0.0129   0.0267  -0.0000   0.0000  -0.0000  -0.0000
 504 C_i :2py   -0.0000  -0.0139   0.0005  -0.0000  -0.0000  -0.0000   0.0000
 505 C_i :2pz   -0.2631   0.0000   0.0000  -0.1147   0.0171   0.2565  -0.0773
 509 C_i :2px    0.0000  -0.0411  -0.0017   0.0000   0.0000  -0.0000   0.0000
 510 C_i :2py    0.0000   0.0314  -0.0173   0.0000  -0.0000  -0.0000   0.0000
 511 C_i :2pz    0.0043  -0.0000  -0.0000   0.0146   0.0027  -0.0146   0.0209
 512 C_i :2px    0.0000   0.0287  -0.0347  -0.0000  -0.0000   0.0000  -0.0000
 513 C_i :2py   -0.0000   0.0597  -0.0770  -0.0000  -0.0000  -0.0000  -0.0000
 514 C_i :2pz   -0.0559   0.0000   0.0000  -0.0570   0.0305   0.1053  -0.0136
 515 C_i :2px    0.0000   0.0102   0.0094  -0.0000   0.0000   0.0000   0.0000
 516 C_i :2py    0.0000   0.0311  -0.0303  -0.0000  -0.0000  -0.0000  -0.0000
 517 C_i :2pz    0.0067  -0.0000   0.0000   0.0153  -0.0243   0.0148  -0.0186
 524 C_i :3d1-  -0.0058  -0.0000  -0.0000   0.0035   0.0002   0.0090   0.0101
 526 C_i :3d1+  -0.0107   0.0000   0.0000  -0.0057   0.0007   0.0076  -0.0051
 528 C_i :3d2-  -0.0000  -0.0223   0.0275  -0.0000   0.0000  -0.0000  -0.0000
 529 C_i :3d1-   0.0827   0.0000   0.0000  -0.0547  -0.0110   0.0199   0.0211
 531 C_i :3d1+  -0.0427  -0.0000  -0.0000   0.0232   0.0037  -0.0174   0.0066
 532 C_i :3d2+   0.0000   0.0042  -0.0166  -0.0000  -0.0000  -0.0000   0.0000
 533 C_i :3d2-   0.0000   0.0443   0.0309  -0.0000  -0.0000  -0.0000   0.0000
 534 C_i :3d1-   0.0752  -0.0000  -0.0000  -0.0805   0.0352   0.0129  -0.0628
 536 C_i :3d1+  -0.0329   0.0000  -0.0000   0.0012   0.0038   0.0081   0.0217
 537 C_i :3d2+  -0.0000  -0.0852   0.0462  -0.0000   0.0000   0.0000  -0.0000
 552 C_i :4f3-  -0.0000  -0.0147  -0.0115   0.0000   0.0000   0.0000   0.0000
 553 C_i :4f2-   0.0163   0.0000   0.0000   0.0053  -0.0020  -0.0036   0.0126
 555 C_i :4f0    0.0094  -0.0000  -0.0000   0.0084   0.0002  -0.0154   0.0062
 557 C_i :4f2+  -0.0066  -0.0000  -0.0000   0.0164  -0.0021  -0.0300   0.0078
 558 C_i :4f3+  -0.0000   0.0217   0.0002   0.0000  -0.0000  -0.0000  -0.0000
 562 C_j :1s    -0.0000  -0.0007  -0.0177   0.0000  -0.0000  -0.0000   0.0000
 563 C_j :1s     0.0000   0.0225  -0.0215   0.0000  -0.0000  -0.0000   0.0000
 566 C_j :2py    0.0000   0.0102  -0.0005   0.0000   0.0000   0.0000   0.0000
 567 C_j :2pz   -0.2870   0.0000   0.0000   0.0035   0.0131   0.2652   0.1033
 571 C_j :2px    0.0000   0.0165  -0.0202   0.0000  -0.0000  -0.0000  -0.0000
 572 C_j :2py    0.0000  -0.0391  -0.0282  -0.0000   0.0000  -0.0000   0.0000
 573 C_j :2pz    0.0048  -0.0000  -0.0000  -0.0055   0.0031  -0.0154  -0.0266
 574 C_j :2px    0.0000  -0.0359   0.0750  -0.0000  -0.0000   0.0000   0.0000
 575 C_j :2py   -0.0000  -0.0248  -0.0256   0.0000   0.0000   0.0000  -0.0000
 576 C_j :2pz   -0.0378   0.0000   0.0000  -0.0309  -0.0206   0.1090   0.0907
 577 C_j :2px    0.0000  -0.0068   0.0171  -0.0000   0.0000   0.0000  -0.0000
 578 C_j :2py   -0.0000  -0.0215  -0.0332  -0.0000  -0.0000  -0.0000   0.0000
 579 C_j :2pz    0.0102  -0.0000   0.0000  -0.0027   0.0134   0.0117   0.0140
 586 C_j :3d1-   0.0052  -0.0000  -0.0000   0.0070  -0.0006  -0.0077   0.0104
 588 C_j :3d1+   0.0119  -0.0000  -0.0000  -0.0018  -0.0003  -0.0083  -0.0061
 591 C_j :3d1-   0.0822   0.0000   0.0000  -0.0592   0.0008   0.0318   0.0220
 593 C_j :3d1+   0.0043   0.0000   0.0000   0.0070   0.0016   0.0081   0.0150
 594 C_j :3d2+  -0.0000  -0.0216   0.0453  -0.0000   0.0000   0.0000   0.0000
 595 C_j :3d2-  -0.0000  -0.0316  -0.0155   0.0000   0.0000  -0.0000  -0.0000
 596 C_j :3d1-   0.0711  -0.0000  -0.0000  -0.0928  -0.0071   0.0348  -0.0259
 598 C_j :3d1+  -0.0163   0.0000  -0.0000   0.0345   0.0140  -0.0398  -0.0112
 614 C_j :4f3-   0.0000   0.0234  -0.0254  -0.0000  -0.0000   0.0000   0.0000
 615 C_j :4f2-  -0.0133  -0.0000  -0.0000   0.0050   0.0016  -0.0179  -0.0142
 617 C_j :4f0    0.0098  -0.0000  -0.0000   0.0009  -0.0009  -0.0163  -0.0099
 619 C_j :4f2+   0.0083  -0.0000  -0.0000   0.0056  -0.0035  -0.0246  -0.0171
 624 C_k :1s     0.0000   0.0306   0.0469   0.0000   0.0000   0.0000   0.0000
 625 C_k :1s     0.0000  -0.0299  -0.0066  -0.0000  -0.0000  -0.0000   0.0000
 626 C_k :1s    -0.0000  -0.0208  -0.0225  -0.0000  -0.0000  -0.0000  -0.0000
 629 C_k :2pz   -0.2917   0.0000   0.0000   0.1740   0.0014   0.1298   0.2789
 634 C_k :2py   -0.0000   0.0163   0.0129  -0.0000  -0.0000  -0.0000  -0.0000
[...]
      ----------------------------------------------------------------
         1    1.48006D-01  0.00D+00  1.48D-01  7.25D+01    0.00000D+00
         2    1.53080D-01  0.00D+00  1.53D-01  7.54D+01    1.82000D-02
         3    1.70513D-01  0.00D+00  1.71D-01  8.51D+01    3.64000D-02

 ** RSPCTL MICROITERATION NUMBER    7

       No.  Residual tot.,    conf., and orb.    Bnorm      Frequency 
      ----------------------------------------------------------------
         1    4.89203D-02  0.00D+00  4.89D-02  7.25D+01    0.00000D+00
         2    5.10964D-02  0.00D+00  5.11D-02  7.54D+01    1.82000D-02
         3    5.86763D-02  0.00D+00  5.87D-02  8.51D+01    3.64000D-02

 *** THE REQUESTED    3 SOLUTION VECTORS CONVERGED

 Convergence of RSP solution vectors, threshold = 1.00D-03
 ---------------------------------------------------------------
 (dimension of paired reduced space:   42)
 RSP solution vector no.    1; norm of residual   6.75D-04
 RSP solution vector no.    2; norm of residual   6.78D-04
 RSP solution vector no.    3; norm of residual   6.90D-04

 *** RSPCTL MICROITERATIONS CONVERGED

@ QRLRVE: SINGLET SOLUTION FOR SYMMETRY    1  ( A  )    LABEL   YDIPLEN     FREQUENCY   0.000000D+00

@ QRLRVE:  << XDIPLEN  ; YDIPLEN  >> (   0.00000):    -152.400539355    

@ QRLRVE:  << YDIPLEN  ; YDIPLEN  >> (   0.00000):     1206.96338000    

@ QRLRVE:  << ZDIPLEN  ; YDIPLEN  >> (   0.00000):   -3.536577097171E-14

@ QRLRVE: SINGLET SOLUTION FOR SYMMETRY    1  ( A  )    LABEL   YDIPLEN     FREQUENCY   0.182000D-01

@ QRLRVE:  << XDIPLEN  ; YDIPLEN  >> (   0.01820):    -156.805755730    

@ QRLRVE:  << YDIPLEN  ; YDIPLEN  >> (   0.01820):     1236.31072042    

@ QRLRVE:  << ZDIPLEN  ; YDIPLEN  >> (   0.01820):   -3.707938471933E-14

@ QRLRVE: SINGLET SOLUTION FOR SYMMETRY    1  ( A  )    LABEL   YDIPLEN     FREQUENCY   0.364000D-01

@ QRLRVE:  << XDIPLEN  ; YDIPLEN  >> (   0.03640):    -171.691812391    

@ QRLRVE:  << YDIPLEN  ; YDIPLEN  >> (   0.03640):     1335.28614309    

@ QRLRVE:  << ZDIPLEN  ; YDIPLEN  >> (   0.03640):   -4.289539854987E-14


 QRLRVE -- linear response calculation for symmetry  1  ( A  )
 QRLRVE -- operator label : ZDIPLEN 
 QRLRVE -- operator spin  :   0
 QRLRVE -- frequencies :  0.000000  0.018200  0.036400



 ---  SOLVING SETS OF LINEAR EQUATIONS FOR LINEAR RESPONSE PROPERTIES ---

 Operator symmetry = 1  ( A  ); triplet =   F


 ** RSPCTL MICROITERATION NUMBER    1

       No.  Residual tot.,    conf., and orb.    Bnorm      Frequency 
      ----------------------------------------------------------------
         1    3.61751D+00  0.00D+00  3.62D+00  9.14D+00    0.00000D+00
         2    3.62023D+00  0.00D+00  3.62D+00  9.17D+00    1.82000D-02
         3    3.62847D+00  0.00D+00  3.63D+00  9.24D+00    3.64000D-02

 ** RSPCTL MICROITERATION NUMBER    2

       No.  Residual tot.,    conf., and orb.    Bnorm      Frequency 
      ----------------------------------------------------------------
         1    9.00309D-01  0.00D+00  9.00D-01  9.57D+00    0.00000D+00
         2    9.02338D-01  0.00D+00  9.02D-01  9.60D+00    1.82000D-02
         3    9.08488D-01  0.00D+00  9.08D-01  9.68D+00    3.64000D-02

 ** RSPCTL MICROITERATION NUMBER    3

       No.  Residual tot.,    conf., and orb.    Bnorm      Frequency 
      ----------------------------------------------------------------
         1    1.80311D-01  0.00D+00  1.80D-01  9.60D+00    0.00000D+00
         2    1.81312D-01  0.00D+00  1.81D-01  9.63D+00    1.82000D-02
         3    1.84364D-01  0.00D+00  1.84D-01  9.72D+00    3.64000D-02

 ** RSPCTL MICROITERATION NUMBER    4

       No.  Residual tot.,    conf., and orb.    Bnorm      Frequency 
      ----------------------------------------------------------------
         1    5.46380D-02  0.00D+00  5.46D-02  9.61D+00    0.00000D+00
         2    5.53672D-02  0.00D+00  5.54D-02  9.64D+00    1.82000D-02
         3    5.76404D-02  0.00D+00  5.76D-02  9.72D+00    3.64000D-02

 ** RSPCTL MICROITERATION NUMBER    5

       No.  Residual tot.,    conf., and orb.    Bnorm      Frequency 
      ----------------------------------------------------------------
         1    1.99219D-02  0.00D+00  1.99D-02  9.61D+00    0.00000D+00
         2    2.04204D-02  0.00D+00  2.04D-02  9.64D+00    1.82000D-02
         3    2.19893D-02  0.00D+00  2.20D-02  9.72D+00    3.64000D-02

 ** RSPCTL MICROITERATION NUMBER    6

       No.  Residual tot.,    conf., and orb.    Bnorm      Frequency 
      ----------------------------------------------------------------
         1    7.40760D-03  0.00D+00  7.41D-03  9.61D+00    0.00000D+00
         2    7.66035D-03  0.00D+00  7.66D-03  9.64D+00    1.82000D-02
         3    8.46455D-03  0.00D+00  8.46D-03  9.72D+00    3.64000D-02

 *** THE REQUESTED    3 SOLUTION VECTORS CONVERGED

 Convergence of RSP solution vectors, threshold = 1.00D-03
 ---------------------------------------------------------------
 (dimension of paired reduced space:   36)
 RSP solution vector no.    1; norm of residual   7.71D-04
 RSP solution vector no.    2; norm of residual   7.95D-04
 RSP solution vector no.    3; norm of residual   8.71D-04

 *** RSPCTL MICROITERATIONS CONVERGED

@ QRLRVE: SINGLET SOLUTION FOR SYMMETRY    1  ( A  )    LABEL   ZDIPLEN     FREQUENCY   0.000000D+00

@ QRLRVE:  << XDIPLEN  ; ZDIPLEN  >> (   0.00000):   -3.758704096819E-14

@ QRLRVE:  << YDIPLEN  ; ZDIPLEN  >> (   0.00000):   -4.222735688800E-14

@ QRLRVE:  << ZDIPLEN  ; ZDIPLEN  >> (   0.00000):     132.328186994    

@ QRLRVE: SINGLET SOLUTION FOR SYMMETRY    1  ( A  )    LABEL   ZDIPLEN     FREQUENCY   0.182000D-01

@ QRLRVE:  << XDIPLEN  ; ZDIPLEN  >> (   0.01820):   -3.820751704844E-14

@ QRLRVE:  << YDIPLEN  ; ZDIPLEN  >> (   0.01820):   -4.386148671773E-14

@ QRLRVE:  << ZDIPLEN  ; ZDIPLEN  >> (   0.01820):     132.483335240    

@ QRLRVE: SINGLET SOLUTION FOR SYMMETRY    1  ( A  )    LABEL   ZDIPLEN     FREQUENCY   0.364000D-01

@ QRLRVE:  << XDIPLEN  ; ZDIPLEN  >> (   0.03640):   -4.016311538986E-14

@ QRLRVE:  << YDIPLEN  ; ZDIPLEN  >> (   0.03640):   -4.937418094958E-14

@ QRLRVE:  << ZDIPLEN  ; ZDIPLEN  >> (   0.03640):     132.952740086    
 
 ======================================================================
 ---  L I N E A R   R E S P O N S E   F U N C T I O N S --- 
 ======================================================================

 The -<<A;B>>(omega_b) functions from vectors generated
 in a *QUADRA calculation of <<A;B,C>>(omega_b,omega_c)

 Note: the accuracy of off-diagonal elements will be linear
 in the convergence threshold THCLR =  1.00D-03


 Perturbation symmetry.     KSYMOP:           1
 Perturbation spin symmetry.TRPLET:           F
 Orbital variables.         KZWOPT:      117360
 Configuration variables.   KZCONF:           0
 Total number of variables. KZVAR :      117360

@ Singlet linear response function in a.u.

@ A operator, symmetry, frequency:   XDIPLEN    1 -0.000000
@ B operator, symmetry, frequency:   XDIPLEN    1  0.000000

@ Value of linear response -<<A;B>>(omega):     206.588024172011

@ Singlet linear response function in a.u.

@ A operator, symmetry, frequency:   YDIPLEN    1 -0.000000
@ B operator, symmetry, frequency:   XDIPLEN    1  0.000000

@ Value of linear response -<<A;B>>(omega):    -152.428831193498

@ Singlet linear response function in a.u.

@ A operator, symmetry, frequency:   ZDIPLEN    1 -0.000000
@ B operator, symmetry, frequency:   XDIPLEN    1  0.000000

@ Value of linear response -<<A;B>>(omega):      -0.000000000000

@ Singlet linear response function in a.u.

@ A operator, symmetry, frequency:   XDIPLEN    1 -0.018200
@ B operator, symmetry, frequency:   XDIPLEN    1  0.018200

@ Value of linear response -<<A;B>>(omega):     207.511454390127

@ Singlet linear response function in a.u.

@ A operator, symmetry, frequency:   YDIPLEN    1 -0.018200
@ B operator, symmetry, frequency:   XDIPLEN    1  0.018200

@ Value of linear response -<<A;B>>(omega):    -156.835667443012

@ Singlet linear response function in a.u.

@ A operator, symmetry, frequency:   ZDIPLEN    1 -0.018200
@ B operator, symmetry, frequency:   XDIPLEN    1  0.018200

@ Value of linear response -<<A;B>>(omega):      -0.000000000000

@ Singlet linear response function in a.u.

@ A operator, symmetry, frequency:   XDIPLEN    1 -0.000000
@ B operator, symmetry, frequency:   YDIPLEN    1  0.000000

@ Value of linear response -<<A;B>>(omega):    -152.400539354775

@ Singlet linear response function in a.u.

@ A operator, symmetry, frequency:   YDIPLEN    1 -0.000000
@ B operator, symmetry, frequency:   YDIPLEN    1  0.000000

@ Value of linear response -<<A;B>>(omega):    1206.963380003990

@ Singlet linear response function in a.u.

@ A operator, symmetry, frequency:   ZDIPLEN    1 -0.000000
@ B operator, symmetry, frequency:   YDIPLEN    1  0.000000

@ Value of linear response -<<A;B>>(omega):      -0.000000000000

@ Singlet linear response function in a.u.

@ A operator, symmetry, frequency:   XDIPLEN    1 -0.018200
@ B operator, symmetry, frequency:   YDIPLEN    1  0.018200

@ Value of linear response -<<A;B>>(omega):    -156.805755729503

@ Singlet linear response function in a.u.

@ A operator, symmetry, frequency:   YDIPLEN    1 -0.018200
@ B operator, symmetry, frequency:   YDIPLEN    1  0.018200

@ Value of linear response -<<A;B>>(omega):    1236.310720417721

@ Singlet linear response function in a.u.

@ A operator, symmetry, frequency:   ZDIPLEN    1 -0.018200
@ B operator, symmetry, frequency:   YDIPLEN    1  0.018200

@ Value of linear response -<<A;B>>(omega):      -0.000000000000

@ Singlet linear response function in a.u.

@ A operator, symmetry, frequency:   XDIPLEN    1 -0.000000
@ B operator, symmetry, frequency:   ZDIPLEN    1  0.000000

@ Value of linear response -<<A;B>>(omega):      -0.000000000000

@ Singlet linear response function in a.u.

@ A operator, symmetry, frequency:   YDIPLEN    1 -0.000000
@ B operator, symmetry, frequency:   ZDIPLEN    1  0.000000

@ Value of linear response -<<A;B>>(omega):      -0.000000000000

@ Singlet linear response function in a.u.

@ A operator, symmetry, frequency:   ZDIPLEN    1 -0.000000
@ B operator, symmetry, frequency:   ZDIPLEN    1  0.000000

@ Value of linear response -<<A;B>>(omega):     132.328186993678

@ Singlet linear response function in a.u.

@ A operator, symmetry, frequency:   XDIPLEN    1 -0.018200
@ B operator, symmetry, frequency:   ZDIPLEN    1  0.018200

@ Value of linear response -<<A;B>>(omega):      -0.000000000000

@ Singlet linear response function in a.u.

@ A operator, symmetry, frequency:   YDIPLEN    1 -0.018200
@ B operator, symmetry, frequency:   ZDIPLEN    1  0.018200

@ Value of linear response -<<A;B>>(omega):      -0.000000000000

@ Singlet linear response function in a.u.

@ A operator, symmetry, frequency:   ZDIPLEN    1 -0.018200
@ B operator, symmetry, frequency:   ZDIPLEN    1  0.018200

@ Value of linear response -<<A;B>>(omega):     132.483335240462


  Results from quadratic response calculation
 --------------------------------------------

@ B-freq = 0.000000  C-freq = 0.000000     beta(X;X,X) =   -803.27880717
@ B-freq = 0.000000  C-freq = 0.000000     beta(Y;X,X) =   3431.91711109
@ B-freq = 0.000000  C-freq = 0.000000     beta(Z;X,X) =      0.00000000
@ B-freq = 0.018200  C-freq = 0.000000     beta(X;X,X) =   -838.75109699
@ B-freq = 0.018200  C-freq = 0.000000     beta(Y;X,X) =   3603.57647640
@ B-freq = 0.018200  C-freq = 0.000000     beta(Z;X,X) =      0.00000000
@ B-freq = 0.000000  C-freq = 0.000000     beta(X;Y,X) = beta(Y,X,X)
@ B-freq = 0.000000  C-freq = 0.000000     beta(X;Y,X) =   3431.91733906
@ B-freq = 0.000000  C-freq = 0.000000     beta(Y;Y,X) = -12778.10634750
@ B-freq = 0.000000  C-freq = 0.000000     beta(Z;Y,X) =      0.00000000
@ B-freq = 0.018200  C-freq = 0.000000     beta(X;Y,X) =   3603.57671532
@ B-freq = 0.018200  C-freq = 0.000000     beta(Y;Y,X) = -13566.42779384
@ B-freq = 0.018200  C-freq = 0.000000     beta(Z;Y,X) =      0.00000000
@ B-freq = 0.000000  C-freq = 0.000000     beta(X;Z,X) = beta(Z,X,X)
@ B-freq = 0.000000  C-freq = 0.000000     beta(Y;Z,X) = beta(Z,Y,X)
@ B-freq = 0.000000  C-freq = 0.000000     beta(X;Z,X) =      0.00000000
@ B-freq = 0.000000  C-freq = 0.000000     beta(Y;Z,X) =      0.00000000
@ B-freq = 0.000000  C-freq = 0.000000     beta(Z;Z,X) =     12.13946430
@ B-freq = 0.018200  C-freq = 0.000000     beta(X;Z,X) =      0.00000000
@ B-freq = 0.018200  C-freq = 0.000000     beta(Y;Z,X) =      0.00000000
@ B-freq = 0.018200  C-freq = 0.000000     beta(Z;Z,X) =     12.27548859
@ B-freq = 0.000000  C-freq = 0.018200     beta(X;X,X) = beta(X,X,X)
@ B-freq = 0.000000  C-freq = 0.018200     beta(Y;X,X) = beta(Y,X,X)
@ B-freq = 0.000000  C-freq = 0.018200     beta(Z;X,X) = beta(Z,X,X)
@ B-freq = 0.018200  C-freq = 0.018200     beta(X;X,X) =   -918.30819115
@ B-freq = 0.018200  C-freq = 0.018200     beta(Y;X,X) =   4037.35838402
@ B-freq = 0.018200  C-freq = 0.018200     beta(Z;X,X) =      0.00000000
@ B-freq = 0.000000  C-freq = 0.018200     beta(X;Y,X) =   3564.73844112
@ B-freq = 0.000000  C-freq = 0.018200     beta(Y;Y,X) = -13381.00039314
@ B-freq = 0.000000  C-freq = 0.018200     beta(Z;Y,X) =      0.00000000
@ B-freq = 0.018200  C-freq = 0.018200     beta(X;Y,X) =   3904.15651525
@ B-freq = 0.018200  C-freq = 0.018200     beta(Y;Y,X) = -15163.47558715
@ B-freq = 0.018200  C-freq = 0.018200     beta(Z;Y,X) =      0.00000000
@ B-freq = 0.000000  C-freq = 0.018200     beta(X;Z,X) =      0.00000000
@ B-freq = 0.000000  C-freq = 0.018200     beta(Y;Z,X) =      0.00000000
@ B-freq = 0.000000  C-freq = 0.018200     beta(Z;Z,X) =     12.26711351
@ B-freq = 0.018200  C-freq = 0.018200     beta(X;Z,X) =      0.00000000
@ B-freq = 0.018200  C-freq = 0.018200     beta(Y;Z,X) =      0.00000000
@ B-freq = 0.018200  C-freq = 0.018200     beta(Z;Z,X) =     12.55013967
@ B-freq = 0.000000  C-freq = 0.000000     beta(X;X,Y) = beta(Y,X,X)
@ B-freq = 0.000000  C-freq = 0.000000     beta(Y;X,Y) = beta(Y,Y,X)
@ B-freq = 0.000000  C-freq = 0.000000     beta(Z;X,Y) = beta(Z,Y,X)
@ B-freq = 0.018200  C-freq = 0.000000     beta(X;X,Y) = beta(X,Y,X)
@ B-freq = 0.018200  C-freq = 0.000000     beta(Y;X,Y) = beta(Y,Y,X)
@ B-freq = 0.018200  C-freq = 0.000000     beta(Z;X,Y) = beta(Z,Y,X)
@ B-freq = 0.000000  C-freq = 0.000000     beta(X;Y,Y) = beta(Y,Y,X)
@ B-freq = 0.000000  C-freq = 0.000000     beta(X;Y,Y) = -12778.10790878
@ B-freq = 0.000000  C-freq = 0.000000     beta(Y;Y,Y) =  39217.86809510
@ B-freq = 0.000000  C-freq = 0.000000     beta(Z;Y,Y) =     -0.00000000
@ B-freq = 0.018200  C-freq = 0.000000     beta(X;Y,Y) = -13381.00203047
@ B-freq = 0.018200  C-freq = 0.000000     beta(Y;Y,Y) =  41692.29194423
@ B-freq = 0.018200  C-freq = 0.000000     beta(Z;Y,Y) =     -0.00000000
@ B-freq = 0.000000  C-freq = 0.000000     beta(X;Z,Y) = beta(Z,Y,X)
@ B-freq = 0.000000  C-freq = 0.000000     beta(Y;Z,Y) = beta(Z,Y,Y)
@ B-freq = 0.000000  C-freq = 0.000000     beta(X;Z,Y) =      0.00000000
@ B-freq = 0.000000  C-freq = 0.000000     beta(Y;Z,Y) =     -0.00000000
@ B-freq = 0.000000  C-freq = 0.000000     beta(Z;Z,Y) =    -40.39784672
@ B-freq = 0.018200  C-freq = 0.000000     beta(X;Z,Y) =      0.00000000
@ B-freq = 0.018200  C-freq = 0.000000     beta(Y;Z,Y) =     -0.00000000
@ B-freq = 0.018200  C-freq = 0.000000     beta(Z;Z,Y) =    -41.11593744
@ B-freq = 0.000000  C-freq = 0.018200     beta(X;X,Y) = beta(X,Y,X)
@ B-freq = 0.000000  C-freq = 0.018200     beta(Y;X,Y) = beta(Y,Y,X)
@ B-freq = 0.000000  C-freq = 0.018200     beta(Z;X,Y) = beta(Z,Y,X)
@ B-freq = 0.018200  C-freq = 0.018200     beta(X;X,Y) = beta(X,Y,X)
@ B-freq = 0.018200  C-freq = 0.018200     beta(Y;X,Y) = beta(Y,Y,X)
@ B-freq = 0.018200  C-freq = 0.018200     beta(Z;X,Y) = beta(Z,Y,X)
@ B-freq = 0.000000  C-freq = 0.018200     beta(X;Y,Y) = beta(X,Y,Y)
@ B-freq = 0.000000  C-freq = 0.018200     beta(Y;Y,Y) = beta(Y,Y,Y)
@ B-freq = 0.000000  C-freq = 0.018200     beta(Z;Y,Y) = beta(Z,Y,Y)
@ B-freq = 0.018200  C-freq = 0.018200     beta(X;Y,Y) = -14529.77034576
@ B-freq = 0.018200  C-freq = 0.018200     beta(Y;Y,Y) =  47369.12718900
@ B-freq = 0.018200  C-freq = 0.018200     beta(Z;Y,Y) =     -0.00000000
@ B-freq = 0.000000  C-freq = 0.018200     beta(X;Z,Y) =      0.00000000
@ B-freq = 0.000000  C-freq = 0.018200     beta(Y;Z,Y) =     -0.00000000
@ B-freq = 0.000000  C-freq = 0.018200     beta(Z;Z,Y) =    -41.17799460
@ B-freq = 0.018200  C-freq = 0.018200     beta(X;Z,Y) =      0.00000000
@ B-freq = 0.018200  C-freq = 0.018200     beta(Y;Z,Y) =     -0.00000000
@ B-freq = 0.018200  C-freq = 0.018200     beta(Z;Z,Y) =    -42.68503615
@ B-freq = 0.000000  C-freq = 0.000000     beta(X;X,Z) = beta(Z,X,X)
@ B-freq = 0.000000  C-freq = 0.000000     beta(Y;X,Z) = beta(Z,Y,X)
@ B-freq = 0.000000  C-freq = 0.000000     beta(Z;X,Z) = beta(Z,Z,X)
@ B-freq = 0.018200  C-freq = 0.000000     beta(X;X,Z) = beta(X,Z,X)
@ B-freq = 0.018200  C-freq = 0.000000     beta(Y;X,Z) = beta(Y,Z,X)
@ B-freq = 0.018200  C-freq = 0.000000     beta(Z;X,Z) = beta(Z,Z,X)
@ B-freq = 0.000000  C-freq = 0.000000     beta(X;Y,Z) = beta(Z,Y,X)
@ B-freq = 0.000000  C-freq = 0.000000     beta(Y;Y,Z) = beta(Z,Y,Y)
@ B-freq = 0.000000  C-freq = 0.000000     beta(Z;Y,Z) = beta(Z,Z,Y)
@ B-freq = 0.018200  C-freq = 0.000000     beta(X;Y,Z) = beta(X,Z,Y)
@ B-freq = 0.018200  C-freq = 0.000000     beta(Y;Y,Z) = beta(Y,Z,Y)
@ B-freq = 0.018200  C-freq = 0.000000     beta(Z;Y,Z) = beta(Z,Z,Y)
@ B-freq = 0.000000  C-freq = 0.000000     beta(X;Z,Z) = beta(Z,Z,X)
@ B-freq = 0.000000  C-freq = 0.000000     beta(Y;Z,Z) = beta(Z,Z,Y)
@ B-freq = 0.000000  C-freq = 0.000000     beta(X;Z,Z) =     12.13944904
@ B-freq = 0.000000  C-freq = 0.000000     beta(Y;Z,Z) =    -40.39778892
@ B-freq = 0.000000  C-freq = 0.000000     beta(Z;Z,Z) =      0.00000000
@ B-freq = 0.018200  C-freq = 0.000000     beta(X;Z,Z) =     12.26709784
@ B-freq = 0.018200  C-freq = 0.000000     beta(Y;Z,Z) =    -41.17793438
@ B-freq = 0.018200  C-freq = 0.000000     beta(Z;Z,Z) =      0.00000000
@ B-freq = 0.000000  C-freq = 0.018200     beta(X;X,Z) = beta(X,Z,X)
@ B-freq = 0.000000  C-freq = 0.018200     beta(Y;X,Z) = beta(Y,Z,X)
@ B-freq = 0.000000  C-freq = 0.018200     beta(Z;X,Z) = beta(Z,Z,X)
@ B-freq = 0.018200  C-freq = 0.018200     beta(X;X,Z) = beta(X,Z,X)
@ B-freq = 0.018200  C-freq = 0.018200     beta(Y;X,Z) = beta(Y,Z,X)
@ B-freq = 0.018200  C-freq = 0.018200     beta(Z;X,Z) = beta(Z,Z,X)
@ B-freq = 0.000000  C-freq = 0.018200     beta(X;Y,Z) = beta(X,Z,Y)
@ B-freq = 0.000000  C-freq = 0.018200     beta(Y;Y,Z) = beta(Y,Z,Y)
@ B-freq = 0.000000  C-freq = 0.018200     beta(Z;Y,Z) = beta(Z,Z,Y)
@ B-freq = 0.018200  C-freq = 0.018200     beta(X;Y,Z) = beta(X,Z,Y)
@ B-freq = 0.018200  C-freq = 0.018200     beta(Y;Y,Z) = beta(Y,Z,Y)
@ B-freq = 0.018200  C-freq = 0.018200     beta(Z;Y,Z) = beta(Z,Z,Y)
@ B-freq = 0.000000  C-freq = 0.018200     beta(X;Z,Z) = beta(X,Z,Z)
@ B-freq = 0.000000  C-freq = 0.018200     beta(Y;Z,Z) = beta(Y,Z,Z)
@ B-freq = 0.000000  C-freq = 0.018200     beta(Z;Z,Z) = beta(Z,Z,Z)
@ B-freq = 0.018200  C-freq = 0.018200     beta(X;Z,Z) =     12.53279240
@ B-freq = 0.018200  C-freq = 0.018200     beta(Y;Z,Z) =    -42.93744419
@ B-freq = 0.018200  C-freq = 0.018200     beta(Z;Z,Z) =      0.00000000

  Total CPU  time used in RESPONSE:   2 hours  4 minutes 19 seconds
  Total wall time used in RESPONSE:   2 hours  4 minutes 56 seconds


                   .-------------------------------------------.
                   | End of Dynamic Property Section (RESPONS) |
                   `-------------------------------------------'

  Total CPU  time used in DALTON:   2 hours 43 minutes 55 seconds
  Total wall time used in DALTON:   2 hours 44 minutes 44 seconds

 
     Date and time (Linux)  : Fri May 30 20:26:51 2025
     Host name              : xm052                                   
