

     ************************************************************************
     *************** Dalton - An Electronic Structure Program ***************
     ************************************************************************

    This is output from DALTON release Dalton2020.0 (2020)
         ( Web site: http://daltonprogram.org )

   ----------------------------------------------------------------------------

    NOTE:
     
    Dalton is an experimental code for the evaluation of molecular
    properties using (MC)SCF, DFT, CI, and CC wave functions.
    The authors accept no responsibility for the performance of
    the code or for the correctness of the results.
     
    The code (in whole or part) is provided under a licence and
    is not to be reproduced for further distribution without
    the written permission of the authors or their representatives.
     
    See the home page "http://daltonprogram.org" for further information.
     
    If results obtained with this code are published,
    the appropriate citations would be both of:
     
       K. Aidas, C. Angeli, K. L. Bak, V. Bakken, R. Bast,
       L. Boman, O. Christiansen, R. Cimiraglia, S. Coriani,
       P. Dahle, E. K. Dalskov, U. Ekstroem,
       T. Enevoldsen, J. J. Eriksen, P. Ettenhuber, B. Fernandez,
       L. Ferrighi, H. Fliegl, L. Frediani, K. Hald, A. Halkier,
       C. Haettig, H. Heiberg, T. Helgaker, A. C. Hennum,
       H. Hettema, E. Hjertenaes, S. Hoest, I.-M. Hoeyvik,
       M. F. Iozzi, B. Jansik, H. J. Aa. Jensen, D. Jonsson,
       P. Joergensen, J. Kauczor, S. Kirpekar,
       T. Kjaergaard, W. Klopper, S. Knecht, R. Kobayashi, H. Koch,
       J. Kongsted, A. Krapp, K. Kristensen, A. Ligabue,
       O. B. Lutnaes, J. I. Melo, K. V. Mikkelsen, R. H. Myhre,
       C. Neiss, C. B. Nielsen, P. Norman, J. Olsen,
       J. M. H. Olsen, A. Osted, M. J. Packer, F. Pawlowski,
       T. B. Pedersen, P. F. Provasi, S. Reine, Z. Rinkevicius,
       T. A. Ruden, K. Ruud, V. Rybkin, P. Salek, C. C. M. Samson,
       A. Sanchez de Meras, T. Saue, S. P. A. Sauer,
       B. Schimmelpfennig, K. Sneskov, A. H. Steindal,
       K. O. Sylvester-Hvid, P. R. Taylor, A. M. Teale,
       E. I. Tellgren, D. P. Tew, A. J. Thorvaldsen, L. Thoegersen,
       O. Vahtras, M. A. Watson, D. J. D. Wilson, M. Ziolkowski
       and H. Agren,
       "The Dalton quantum chemistry program system",
       WIREs Comput. Mol. Sci. 2014, 4:269–284 (doi: 10.1002/wcms.1172)
     
    and
     
       Dalton, a molecular electronic structure program,
       Release Dalton2020.0 (2020), see http://daltonprogram.org
   ----------------------------------------------------------------------------

    Authors in alphabetical order (Major contribution(s) in parenthesis):

  Kestutis Aidas,           Vilnius University,           Lithuania   (QM/MM)
  Celestino Angeli,         University of Ferrara,        Italy       (NEVPT2)
  Keld L. Bak,              UNI-C,                        Denmark     (AOSOPPA, non-adiabatic coupling, magnetic properties)
  Vebjoern Bakken,          University of Oslo,           Norway      (DALTON; geometry optimizer, symmetry detection)
  Radovan Bast,             UiT The Arctic U. of Norway,  Norway      (DALTON installation and execution frameworks)
  Pablo Baudin,             University of Valencia,       Spain       (Cholesky excitation energies)
  Linus Boman,              NTNU,                         Norway      (Cholesky decomposition and subsystems)
  Bruno N. Cabral Tenorio,  Technical Univ. of Denmark,   Denmark     (Lanczos-based CC methods)
  Ove Christiansen,         Aarhus University,            Denmark     (CC module)
  Renzo Cimiraglia,         University of Ferrara,        Italy       (NEVPT2)
  Sonia Coriani,            Technical Univ. of Denmark,   Denmark     (CC and RESPONS modules)
  Janusz Cukras,            University of Warsaw,         Poland      (MChD in RESPONS)
  Paal Dahle,               University of Oslo,           Norway      (Parallelization)
  Erik K. Dalskov,          UNI-C,                        Denmark     (SOPPA)
  Thomas Enevoldsen,        Univ. of Southern Denmark,    Denmark     (SOPPA)
  Janus J. Eriksen,         Aarhus University,            Denmark     (Polarizable embedding, TDA)
  Rasmus Faber,             Technical Univ. of Denmark,   Denmark     (Vib.avg. NMR w. SOPPA, parallel AO-SOPPA, CVS-CC and EOMCC)
  Tobias Fahleson,          KTH Stockholm,                Sweden      (Damped cubic response)
  Berta Fernandez,          U. of Santiago de Compostela, Spain       (Doublet spin, ESR in RESPONS)
  Lara Ferrighi,            Aarhus University,            Denmark     (PCM Cubic response)
  Heike Fliegl,             University of Oslo,           Norway      (CCSD(R12))
  Luca Frediani,            UiT The Arctic U. of Norway,  Norway      (PCM)
  Emmanuel Fromager,        Univ. Strasbourg,             France      (MC-srDFT)
  Bin Gao,                  UiT The Arctic U. of Norway,  Norway      (Gen1Int library)
  Andre S. P. Gomes,        CNRS/Universite de Lille,     France      (Frozen density embedding)
  Christof Haettig,         Ruhr-University Bochum,       Germany     (CC module)
  Kasper Hald,              Aarhus University,            Denmark     (CC module)
  Asger Halkier,            Aarhus University,            Denmark     (CC module)
  Frederik Beyer Hansen,    University of Copenhagen,     Denmark     (Parallel AO-SOPPA)
  Erik D. Hedegaard,        Univ. of Southern Denmark,    Denmark     (Polarizable embedding, QM/MM, and MC-srDFT)
  Hanne Heiberg,            University of Oslo,           Norway      (Geometry analysis, selected one-electron integrals)
  Trygve Helgaker,          University of Oslo,           Norway      (DALTON; ABACUS, ERI, DFT modules, London, and much more)
  Alf Christian Hennum,     University of Oslo,           Norway      (Parity violation)
  Hinne Hettema,            University of Auckland,       New Zealand (Quadratic response in RESPONS; SIRIUS supersymmetry)
  Eirik Hjertenaes,         NTNU,                         Norway      (Cholesky decomposition)
  Pi A. B. Haase,           University of Copenhagen,     Denmark     (Triplet AO-SOPPA)
  Maria Francesca Iozzi,    University of Oslo,           Norway      (RPA)
  Christoph Jacob           TU Braunschweig               Germany     (Frozen density embedding)
  Brano Jansik              Technical Univ. of Ostrava    Czech Rep.  (DFT cubic response)
  Hans Joergen Aa. Jensen,  Univ. of Southern Denmark,    Denmark     (DALTON; SIRIUS, RESPONS, ABACUS, MC-srDFT, and much more)
  Dan Jonsson,              UiT The Arctic U. of Norway,  Norway      (Cubic response in RESPONS module)
  Poul Joergensen,          Aarhus University,            Denmark     (RESPONS, ABACUS, and CC modules)
  Maciej Kaminski,          University of Warsaw,         Poland      (CPPh in RESPONS)
  Joanna Kauczor,           Linkoeping University,        Sweden      (Complex polarization propagator (CPP) module)
  Sheela Kirpekar,          Univ. of Southern Denmark,    Denmark     (Mass-velocity & Darwin integrals)
  Erik Kjellgren,           Univ. of Southern Denmark,    Denmark     (MC-srDFT)
  Wim Klopper,              KIT Karlsruhe,                Germany     (R12 code in CC, SIRIUS, and ABACUS modules)
  Stefan Knecht,            ETH Zurich,                   Switzerland (Parallel CI and MCSCF, MC-srDFT)
  Rika Kobayashi,           Australian National Univ.,    Australia   (DIIS in CC, London in MCSCF)
  Henrik Koch,              NTNU,                         Norway      (CC module, Cholesky decomposition)
  Jacob Kongsted,           Univ. of Southern Denmark,    Denmark     (Polarizable embedding, polarizable density embedding, QM/MM)
  Andrea Ligabue,           University of Modena,         Italy       (CTOCD, AOSOPPA)
  Nanna H. List             Univ. of Southern Denmark,    Denmark     (Polarizable embedding)
  Ola B. Lutnaes,           University of Oslo,           Norway      (DFT Hessian)
  Juan I. Melo,             University of Buenos Aires,   Argentina   (LRESC, Relativistic Effects on NMR Shieldings)
  Kurt V. Mikkelsen,        University of Copenhagen,     Denmark     (MC-SCRF and QM/MM)
  Rolf H. Myhre,            NTNU,                         Norway      (Subsystems and CC3)
  Christian Neiss,          Univ. Erlangen-Nuernberg,     Germany     (CCSD(R12))
  Christian B. Nielsen,     University of Copenhagen,     Denmark     (QM/MM)
  Patrick Norman,           KTH Stockholm,                Sweden      (Cubic response and complex frequency response in RESPONS)
  Jeppe Olsen,              Aarhus University,            Denmark     (SIRIUS CI/density modules)
  Jogvan Magnus H. Olsen,   Aarhus University,            Denmark     (Polarizable embedding and polarizable density embedding)
  Anders Osted,             Copenhagen University,        Denmark     (QM/MM)
  Martin J. Packer,         University of Sheffield,      UK          (SOPPA)
  Filip Pawlowski,          Kazimierz Wielki University,  Poland      (CC3)
  Morten N. Pedersen,       Univ. of Southern Denmark,    Denmark     (Polarizable embedding)
  Thomas B. Pedersen,       University of Oslo,           Norway      (Cholesky decomposition)
  Patricio F. Provasi,      University of Northeastern,   Argentina   (Analysis of coupling constants in localized orbitals)
  Peter Reinholdt,          Univ. of Southern Denmark,    Denmark     (Polarizable embedding and polarizable density embedding)
  Zilvinas Rinkevicius,     KTH Stockholm,                Sweden      (open-shell DFT, ESR)
  Elias Rudberg,            KTH Stockholm,                Sweden      (DFT grid and basis info)
  Torgeir A. Ruden,         University of Oslo,           Norway      (Numerical derivatives in ABACUS)
  Kenneth Ruud,             UiT The Arctic U. of Norway,  Norway      (DALTON; ABACUS magnetic properties and much more)
  Pawel Salek,              KTH Stockholm,                Sweden      (DALTON; DFT code)
  Claire C. M. Samson       University of Karlsruhe       Germany     (Boys localization, r12 integrals in ERI)
  Alfredo Sanchez de Meras, University of Valencia,       Spain       (CC module, Cholesky decomposition)
  Trond Saue,               Paul Sabatier University,     France      (direct Fock matrix construction)
  Stephan P. A. Sauer,      University of Copenhagen,     Denmark     (SOPPA(CCSD), SOPPA prop., AOSOPPA, vibrational g-factors)
  Bernd Schimmelpfennig,    Forschungszentrum Karlsruhe,  Germany     (AMFI module)
  Anna K. Schnack-Petersen, University of Copenhagen,     Denmark     (RPA(D) and HRPA(D) properties in AOSOPPA)
  Kristian Sneskov,         Aarhus University,            Denmark     (Polarizable embedding, QM/MM)
  Arnfinn H. Steindal,      UiT The Arctic U. of Norway,  Norway      (parallel QM/MM, polarizable embedding)
  Casper Steinmann,         Aalborg University,           Denmark     (QFIT, polarizable embedding)
  K. O. Sylvester-Hvid,     University of Copenhagen,     Denmark     (MC-SCRF)
  Peter R. Taylor,          VLSCI/Univ. of Melbourne,     Australia   (Symmetry handling ABACUS, integral transformation)
  Andrew M. Teale,          University of Nottingham,     England     (DFT-AC, DFT-D)
  David P. Tew,             University of Bristol,        England     (CCSD(R12))
  Julien Toulouse,          Sorbonne Univ.,               France      (MC-srDFT)
  Olav Vahtras,             KTH Stockholm,                Sweden      (Triplet response, spin-orbit, ESR, TDDFT, open-shell DFT)
  Lucas Visscher,           Vrije Universiteit Amsterdam, Netherlands (Frozen density embedding)
  David J. Wilson,          La Trobe University,          Australia   (DFT Hessian and DFT magnetizabilities)
  Hans Agren,               KTH Stockholm,                Sweden      (SIRIUS module, RESPONS, MC-SCRF solvation)
 --------------------------------------------------------------------------------

     Date and time (Linux)  : Tue May 27 12:32:46 2025
     Host name              : xm059                                   

 * Work memory size             :   131072000 = 1000.00 megabytes.

 * Directories for basis set searches:
   1) /gpfs/projects/rjh/adrian/summer2025/beta_projects/raw_data/NLO/dalton/hf/n8/dipole
   2) /gpfs/projects/rjh/adrian/dalton/build/basis


Compilation information
-----------------------

 Who compiled             | ahurtado
 Host                     | milan2
 System                   | Linux-5.14.0-427.42.1.el9_4.x86_64
 CMake generator          | Unix Makefiles
 Processor                | x86_64
 64-bit integers          | OFF
 MPI                      | ON
 Fortran compiler         | /gpfs/software/openmpi/milan/gcc13.2/4.1.6/bin/mpi
                          | f90
 Fortran compiler version | GNU Fortran (GCC) 13.2.0
 C compiler               | /gpfs/software/openmpi/milan/gcc13.2/4.1.6/bin/mpi
                          | cc
 C compiler version       | gcc (GCC) 13.2.0
 C++ compiler             | /gpfs/software/openmpi/milan/gcc13.2/4.1.6/bin/mpi
                          | cxx
 C++ compiler version     | unknown
 BLAS                     | /gpfs/software/intel/oneAPI/2024_2/mkl/2024.2/lib/
                          | intel64/libmkl_gf_lp64.so;/gpfs/software/intel/one
                          | API/2024_2/mkl/2024.2/lib/intel64/libmkl_sequentia
                          | l.so;/gpfs/software/intel/oneAPI/2024_2/mkl/2024.2
                          | /lib/intel64/libmkl_core.so;/usr/lib64/libpthread.
                          | a;/usr/lib64/libm.so
 LAPACK                   | /gpfs/software/intel/oneAPI/2024_2/mkl/2024.2/lib/
                          | intel64/libmkl_lapack95_lp64.a;/gpfs/software/inte
                          | l/oneAPI/2024_2/mkl/2024.2/lib/intel64/libmkl_gf_l
                          | p64.so
 Static linking           | OFF
 Last Git revision        | 66052b3af5ea7225e31178bf9a8b031913c72190
 Git branch               | (HEAD detached at Dalton2020.0)
 Configuration time       | 2025-04-10 16:02:31.569498

 * MPI parallel run using 576 processes.


   Content of the .dal input file
 ----------------------------------

**DALTON INPUT
.RUN RESPONSE
.DIRECT
**WAVE FUNCTIONS
.HF
**PROPERTIES
**RESPONSE
*QUADRA
.DIPLEN
.FREQUENCIES
2
0.0 0.0182
**END OF DALTON INPUT


   Content of the .mol file
 ----------------------------

BASIS
aug-cc-pVDZ
blah
blah
Atomtype=4 Angstrom Charge=0 Nosymmetry
Charge=6 Atoms=16
C_a 1.6519229998176075 -8.049175002179144 0.0
C_b 1.9444589988455454 -6.728077999620022 0.0
C_c 0.9366040010539604 -5.690966000374534 0.0
C_d 1.2516239989151714 -4.3572310024581675 0.0
C_e 0.27660000195709034 -3.2955410025308343 0.0
C_f 0.6103160000079801 -1.9627990003585178 0.0
C_g -0.34819400077912716 -0.8893029986516443 0.0
C_h 0.0 0.44131100203631646 0.0
C_i -0.9456049984846748 1.5250140013287934 0.0
C_j -0.5837860021820497 2.8524229979061544 0.0
C_k -1.5159250017279444 3.9479510017318074 0.0
C_l -1.1372629986153835 5.270107999161623 0.0
C_m -2.0506620021783046 6.382867002528075 0.0
C_n -1.644438999988493 7.694968997942507 0.0
C_o -2.523165000348833 8.836908002186938 0.0
C_p -2.048411998888029 10.121828000534174 0.0
Charge=7 Atoms=2
N_a -2.8041959988864313 11.262344999778092 0.0
N_b 2.7078260024374066 -9.054929002399435 0.0
Charge=8 Atoms=2
O_a 2.323730000259234 -10.230869002414845 0.0
O_b 3.8840309985246044 -8.68481800029295 0.0
Charge=1 Atoms=18
H_a 0.6520620016836924 -8.487247000469075 0.0
H_b 3.0029160011878337 -6.440803001043983 0.0
H_c -0.1199049994321818 -5.991733001657485 0.0
H_d 2.3134169978947887 -4.069848998958359 0.0
H_e -0.7863270026179043 -3.5764360025252904 0.0
H_f 1.676177001168674 -1.6897610013336615 0.0
H_g -1.4149200003001545 -1.1563959986374055 0.0
H_h 1.0690499976606709 0.702059998074365 0.0
H_i -2.0153140016928814 1.2696639992838707 0.0
H_j 0.4883619999572235 3.1008549974829505 0.0
H_k -2.588692998470783 3.705754000889098 0.0
H_l -0.061098001686370085 5.5019949980746725 0.0
H_m -3.127446999002655 6.160261999436378 0.0
H_n -0.5619530024451147 7.897245002306574 0.0
H_o -3.6077729985069977 8.662572999055104 0.0
H_p -0.9650279982016882 10.295662999994963 0.0
H_q -3.8139179973785255 11.215004002162194 0.0
H_r -2.3715529989374713 12.17301699971304 0.0


       *******************************************************************
       *********** Output from DALTON general input processing ***********
       *******************************************************************

 --------------------------------------------------------------------------------
   Overall default print level:    0
   Print level for DALTON.STAT:    1

    Parallel calculation using MPI
    AO-direct calculation (in sections where implemented)
    HERMIT 1- and 2-electron integral sections will be executed
    "Old" integral transformation used (limited to max 255 basis functions)
    Wave function sections will be executed (SIRIUS module)
    Dynamic molecular response properties section will be executed (RESPONSE module)
 --------------------------------------------------------------------------------


   ****************************************************************************
   *************** Output of molecule and basis set information ***************
   ****************************************************************************


    The two title cards from your ".mol" input:
    ------------------------------------------------------------------------
 1: blah                                                                    
 2: blah                                                                    
    ------------------------------------------------------------------------

  Coordinates are entered in Angstrom and converted to atomic units.
          - Conversion factor : 1 bohr = 0.52917721 A

  Atomic type no.    1
  --------------------
  Nuclear charge:   6.00000
  Number of symmetry independent centers:   16
  Number of basis sets to read;    2
  Basis set file used for this atomic type with Z =   6 :
     "/gpfs/projects/rjh/adrian/dalton/build/basis/aug-cc-pVDZ"

  Atomic type no.    2
  --------------------
  Nuclear charge:   7.00000
  Number of symmetry independent centers:    2
  Number of basis sets to read;    2
  Basis set file used for this atomic type with Z =   7 :
     "/gpfs/projects/rjh/adrian/dalton/build/basis/aug-cc-pVDZ"

  Atomic type no.    3
  --------------------
  Nuclear charge:   8.00000
  Number of symmetry independent centers:    2
  Number of basis sets to read;    2
  Basis set file used for this atomic type with Z =   8 :
     "/gpfs/projects/rjh/adrian/dalton/build/basis/aug-cc-pVDZ"

  Atomic type no.    4
  --------------------
  Nuclear charge:   1.00000
  Number of symmetry independent centers:   18
  Number of basis sets to read;    2
  Basis set file used for this atomic type with Z =   1 :
     "/gpfs/projects/rjh/adrian/dalton/build/basis/aug-cc-pVDZ"


                         SYMGRP: Point group information
                         -------------------------------

@    Point group: C1 


                                 Isotopic Masses
                                 ---------------

                           C_a        12.000000
                           C_b        12.000000
                           C_c        12.000000
                           C_d        12.000000
                           C_e        12.000000
                           C_f        12.000000
                           C_g        12.000000
                           C_h        12.000000
                           C_i        12.000000
                           C_j        12.000000
                           C_k        12.000000
                           C_l        12.000000
                           C_m        12.000000
                           C_n        12.000000
                           C_o        12.000000
                           C_p        12.000000
                           N_a        14.003074
                           N_b        14.003074
                           O_a        15.994915
                           O_b        15.994915
                           H_a         1.007825
                           H_b         1.007825
                           H_c         1.007825
                           H_d         1.007825
                           H_e         1.007825
                           H_f         1.007825
                           H_g         1.007825
                           H_h         1.007825
                           H_i         1.007825
                           H_j         1.007825
                           H_k         1.007825
                           H_l         1.007825
                           H_m         1.007825
                           H_n         1.007825
                           H_o         1.007825
                           H_p         1.007825
                           H_q         1.007825
                           H_r         1.007825

                       Total mass:   270.136828 amu
                       Natural abundance:  82.539 %

 Center-of-mass coordinates (a.u.):    0.084675   -0.271854    0.000000
 Center-of-mass coordinates (Angs):    0.044808   -0.143859    0.000000


  Atoms and basis sets
  --------------------

  Number of atom types :    4
  Total number of atoms:   38

  Basis set used is "aug-cc-pVDZ" from the basis set library.

  label    atoms   charge   prim   cont     basis
  ----------------------------------------------------------------------
  C_         16    6.0000    35    23      [10s5p2d|4s3p2d]                                   
  N_          2    7.0000    35    23      [10s5p2d|4s3p2d]                                   
  O_          2    8.0000    35    23      [10s5p2d|4s3p2d]                                   
  H_         18    1.0000    11     9      [5s2p|3s2p]                                        
  ----------------------------------------------------------------------
  total:     38  144.0000   898   622
  ----------------------------------------------------------------------
  Spherical harmonic basis used.

  Threshold for neglecting AO integrals:  1.00D-12

  Max    interatomic separation is   22.8906 Angstrom (   43.2570 Bohr)
  between atoms   38 and   19, "H_r   " and "O_a   ".

  Min HX interatomic separation is    1.0082 Angstrom (    1.9053 Bohr)

  Min YX interatomic separation is    1.2331 Angstrom (    2.3301 Bohr)


  Bond distances (Angstrom):
  --------------------------

                  atom 1     atom 2       distance
                  ------     ------       --------
  bond distance:  C_b        C_a          1.353098
  bond distance:  C_c        C_b          1.446158
  bond distance:  C_d        C_c          1.370433
  bond distance:  C_e        C_d          1.441478
  bond distance:  C_f        C_e          1.373888
  bond distance:  C_g        C_f          1.439144
  bond distance:  C_h        C_g          1.375417
  bond distance:  C_i        C_h          1.438256
  bond distance:  C_j        C_i          1.375837
  bond distance:  C_k        C_j          1.438424
  bond distance:  C_l        C_k          1.375312
  bond distance:  C_m        C_l          1.439629
  bond distance:  C_n        C_m          1.373546
  bond distance:  C_o        C_n          1.440897
  bond distance:  C_p        C_o          1.369821
  bond distance:  N_a        C_p          1.368206
  bond distance:  N_b        C_a          1.458243
  bond distance:  O_a        N_b          1.237079
  bond distance:  O_b        N_b          1.233061
  bond distance:  H_a        C_a          1.091618
  bond distance:  H_b        C_b          1.096749
  bond distance:  H_c        C_c          1.098486
  bond distance:  H_d        C_d          1.099997
  bond distance:  H_e        C_e          1.099416
  bond distance:  H_f        C_f          1.100277
  bond distance:  H_g        C_g          1.099656
  bond distance:  H_h        C_h          1.100390
  bond distance:  H_i        C_i          1.099764
  bond distance:  H_j        C_j          1.100554
  bond distance:  H_k        C_k          1.099768
  bond distance:  H_l        C_l          1.100865
  bond distance:  H_m        C_m          1.099554
  bond distance:  H_n        C_n          1.101223
  bond distance:  H_o        C_o          1.098530
  bond distance:  H_p        C_p          1.097242
  bond distance:  H_q        N_a          1.010831
  bond distance:  H_r        N_a          1.008218


  Bond angles (degrees):
  ----------------------

                  atom 1     atom 2     atom 3         angle
                  ------     ------     ------         -----
  bond angle:     C_b        C_a        N_b          121.121
  bond angle:     C_b        C_a        H_a          126.146
  bond angle:     N_b        C_a        H_a          112.734
  bond angle:     C_a        C_b        C_c          123.334
  bond angle:     C_a        C_b        H_b          117.671
  bond angle:     C_c        C_b        H_b          118.996
  bond angle:     C_b        C_c        C_d          122.530
  bond angle:     C_b        C_c        H_c          118.290
  bond angle:     C_d        C_c        H_c          119.180
  bond angle:     C_c        C_d        C_e          124.147
  bond angle:     C_c        C_d        H_d          118.434
  bond angle:     C_e        C_d        H_d          117.419
  bond angle:     C_d        C_e        C_f          123.379
  bond angle:     C_d        C_e        H_e          117.761
  bond angle:     C_f        C_e        H_e          118.861
  bond angle:     C_e        C_f        C_g          124.181
  bond angle:     C_e        C_f        H_f          118.426
  bond angle:     C_g        C_f        H_f          117.393
  bond angle:     C_f        C_g        C_h          123.574
  bond angle:     C_f        C_g        H_g          117.704
  bond angle:     C_h        C_g        H_g          118.721
  bond angle:     C_g        C_h        C_i          124.229
  bond angle:     C_g        C_h        H_h          118.372
  bond angle:     C_i        C_h        H_h          117.400
  bond angle:     C_h        C_i        C_j          123.646
  bond angle:     C_h        C_i        H_i          117.681
  bond angle:     C_j        C_i        H_i          118.673
  bond angle:     C_i        C_j        C_k          124.360
  bond angle:     C_i        C_j        H_j          118.293
  bond angle:     C_k        C_j        H_j          117.347
  bond angle:     C_j        C_k        C_l          123.625
  bond angle:     C_j        C_k        H_k          117.671
  bond angle:     C_l        C_k        H_k          118.704
  bond angle:     C_k        C_l        C_m          124.638
  bond angle:     C_k        C_l        H_l          118.141
  bond angle:     C_m        C_l        H_l          117.221
  bond angle:     C_l        C_m        C_n          123.417
  bond angle:     C_l        C_m        H_m          117.700
  bond angle:     C_n        C_m        H_m          118.883
  bond angle:     C_m        C_n        C_o          125.219
  bond angle:     C_m        C_n        H_n          117.787
  bond angle:     C_o        C_n        H_n          116.994
  bond angle:     C_n        C_o        C_p          122.143
  bond angle:     C_n        C_o        H_o          118.447
  bond angle:     C_p        C_o        H_o          119.410
  bond angle:     C_o        C_p        N_a          126.191
  bond angle:     C_o        C_p        H_p          119.394
  bond angle:     N_a        C_p        H_p          114.415
  bond angle:     C_p        N_a        H_q          120.847
  bond angle:     C_p        N_a        H_r          121.057
  bond angle:     H_q        N_a        H_r          118.096
  bond angle:     C_a        N_b        O_a          115.518
  bond angle:     C_a        N_b        O_b          118.926
  bond angle:     O_a        N_b        O_b          125.556




 Principal moments of inertia (u*A**2) and principal axes
 --------------------------------------------------------

   IA     106.400601         -0.256912    0.966435    0.000000
   IB   13629.472743          0.966435    0.256912    0.000000
   IC   13735.873344          0.000000    0.000000    1.000000


 Rotational constants
 --------------------

@    The molecule is planar.

               A                   B                   C

           4749.7759             37.0799             36.7926 MHz
            0.158435            0.001237            0.001227 cm-1


@  Nuclear repulsion energy : 1124.842995138595 Hartree


                     .---------------------------------------.
                     | Starting in Integral Section (HERMIT) |
                     `---------------------------------------'



 ***************************************************************************************
 ****************** Output from **INTEGRALS input processing (HERMIT) ******************
 ***************************************************************************************


 - Using defaults, no **INTEGRALS input found

 Default print level:        1

 Calculation of one-electron Hamiltonian integrals.

 Center of mass  (bohr):      0.084675424180     -0.271853977243      0.000000000000
 Operator center (bohr):      0.000000000000      0.000000000000      0.000000000000
 Gauge origin    (bohr):      0.000000000000      0.000000000000      0.000000000000
 Dipole origin   (bohr):      0.000000000000      0.000000000000      0.000000000000


     ************************************************************************
     ************************** Output from HERINT **************************
     ************************************************************************



                      Nuclear contribution to dipole moments
                      --------------------------------------

                 au               Debye          C m (/(10**-30)

      x      0.00000567         0.00001441         0.00004807
      y     -0.00000199        -0.00000506        -0.00001687
      z      0.00000000         0.00000000         0.00000000


  Time used in ONEDRV     is       0.94 seconds
  Time used in HUCKEL     is       0.26 seconds
  Time used in OVERLAP    is       0.12 seconds
  Time used in POPOVLP    is       0.22 seconds
  Time used in R2         is       0.14 seconds
  Time used in R4         is       0.17 seconds
  Time used in DIPLEN     is       0.15 seconds
  Time used in QUADRUP    is       0.30 seconds
  Time used in KINENE     is       0.22 seconds
  Time used in GABGEN     is       0.69 seconds
  Total CPU  time used in HERMIT:   3.21 seconds
  Total wall time used in HERMIT:   3.24 seconds


                        .----------------------------------.
                        | End of Integral Section (HERMIT) |
                        `----------------------------------'



                   .--------------------------------------------.
                   | Starting in Wave Function Section (SIRIUS) |
                   `--------------------------------------------'



@ Primary orbitals are deleted during canonical orthonormalization
@   because of detected numerical linear dependence or too large coefficients.
@ Eigenvalue threshold for num. lin. dep. =  1.00D-06

@   1 MO components are deleted in symmetry    1
 Overlap eigenvalues of the deleted orbitals:
  4.73D-07

 Max MO coeff. of last deleted MO & limit:  5.47D+02  1.00D+03

WARNING: Orbitals have been deleted because of numerical
   linear dependence although not requested in input.

 *** Output from Huckel module :

     Using EWMO model:          T
     Using EHT  model:          F
     Number of Huckel orbitals each symmetry:  118

 EWMO - Energy Weighted Maximum Overlap - is a Huckel type method,
        which normally is better than Extended Huckel Theory.
 Reference: Linderberg and Ohrn, Propagators in Quantum Chemistry (Wiley, 1973)

 Huckel EWMO eigenvalues for symmetry :  1
          -20.684752     -20.683494     -15.677079     -15.674967     -11.359307
          -11.359266     -11.358906     -11.358593     -11.357325     -11.355507
          -11.353426     -11.351440     -11.348398     -11.347250     -11.346283
          -11.345667     -11.345449     -11.345400     -11.345246     -11.345227
           -1.964065      -1.791926      -1.782678      -1.755573      -1.701620
           -1.617914      -1.510222      -1.444708      -1.381225      -1.253330
           -1.201590      -1.154517      -1.127543      -1.083590      -1.015880
           -0.988337      -0.927502      -0.887204      -0.852017      -0.846774
           -0.822695      -0.776281      -0.748511      -0.742719      -0.741154
           -0.691295      -0.685733      -0.664159      -0.634185      -0.633128
           -0.606804      -0.586000      -0.583835      -0.570952      -0.552233
           -0.539569      -0.520624      -0.513914      -0.510557      -0.496194
           -0.493338      -0.486689      -0.484633      -0.477852      -0.476338
           -0.474917      -0.453982      -0.434481      -0.404414      -0.395254
           -0.368300      -0.363568      -0.335252      -0.295149      -0.266773
           -0.243802      -0.229156      -0.226082      -0.213043      -0.203946
           -0.200991      -0.198050      -0.194756      -0.190554      -0.166609
           -0.142744      -0.138877      -0.133593      -0.131413      -0.131078
           -0.129945      -0.129497      -0.129429      -0.128444      -0.127646
           -0.127087      -0.126593      -0.126145      -0.125008      -0.124537
           -0.123965      -0.123214      -0.111649      -0.109435      -0.105607
           -0.102379      -0.098860      -0.095905      -0.092761      -0.091358
           -0.088590      -0.087964      -0.086082      -0.085619      -0.084136
           -0.082272      -0.080515      -0.079387

 **********************************************************************
 *SIRIUS* a direct, restricted step, second order MCSCF program       *
 **********************************************************************

 
     Date and time (Linux)  : Tue May 27 12:33:04 2025
     Host name              : xm059                                   

 Title lines from ".mol" input file:
     blah                                                                    
     blah                                                                    

 Print level on unit LUPRI =   2 is   0
 Print level on unit LUW4  =   2 is   5

@    Restricted, closed shell Hartree-Fock calculation.

@    Time-dependent Hartree-Fock calculation (random phase approximation).
 Fock matrices are calculated directly and in parallel without use of integrals on disk.

 Initial molecular orbitals are obtained according to
 ".MOSTART EWMO  " input option

     Wave function specification
     ============================
@    Wave function type        --- HF ---
@    Number of closed shell electrons         144
@    Number of electrons in active shells       0
@    Total charge of the molecule               0

@    Spin multiplicity and 2 M_S                1         0
@    Total number of symmetries                 1 (point group: C1 )
@    Reference state symmetry                   1 (irrep name : A  )

     Orbital specifications
     ======================
@    Abelian symmetry species          All |    1
@                                          |  A  
                                       --- |  ---
@    Occupied SCF orbitals              72 |   72
@    Secondary orbitals                549 |  549
@    Total number of orbitals          621 |  621
@    Number of basis functions         622 |  622

     Optimization information
     ========================
@    Number of configurations                 1
@    Number of orbital rotations          39528
     ------------------------------------------
@    Total number of variables            39529

     Maximum number of Fock   iterations      0
     Maximum number of DIIS   iterations     60
     Maximum number of QC-SCF iterations     60
     Threshold for SCF convergence     1.00D-05

    INFORMATION: Switched to "new" integral transformation (from 1988 ;-) )
    because more than 255 basis functions.


 ***********************************************
 ***** DIIS acceleration of SCF iterations *****
 ***********************************************

 C1-DIIS algorithm; max error vectors =    8

 Iter      Total energy        Error norm    Delta(E)  DIIS dim.
 -----------------------------------------------------------------------------
   1  Screening settings (-IFTHRS, JTDIIS, DIFDEN, times)   -9    1    T  5.99D+00  6.02D+00
@  1    -871.550603235        6.78252D+00   -8.72D+02    1
      Virial theorem: -V/T =      2.010601
@    MULPOP   C_a     0.75; C_b     0.09; C_c     0.22; C_d     0.41; C_e     0.26; C_f     0.32; C_g     0.27; C_h     0.32; C_i     0.22; C_j     0.35; 
@             C_k     0.21; C_l     0.40; C_m     0.21; C_n     0.34; C_o    -0.17; C_p     0.86; N_a    -0.22; N_b     1.01; O_a    -1.15; O_b    -1.15; 
@             H_a    -0.20; H_b    -0.24; H_c    -0.22; H_d    -0.24; H_e    -0.24; H_f    -0.24; H_g    -0.24; H_h    -0.24; H_i    -0.24; H_j    -0.24; 
@    MULPOP    dipole moment & components:     24.5509;       -7.6941     23.3141      0.0000
   1  Level shift: doubly occupied orbital energies shifted by -2.00D-01
 -----------------------------------------------------------------------------
   2  Screening settings (-IFTHRS, JTDIIS, DIFDEN, times)   -9    2    T  1.58D+00  1.58D+00
@  2    -874.376350349        2.77333D+00   -2.83D+00    2
      Virial theorem: -V/T =      2.001486
@    MULPOP   C_a     0.64; C_b     0.50; C_c     0.74; C_d     0.51; C_e     0.72; C_f     0.53; C_g     0.62; C_h     0.56; C_i     0.68; C_j     0.53; 
@             C_k     0.66; C_l     0.57; C_m     0.82; C_n     0.34; C_o     0.70; C_p     0.65; N_a    -0.17; N_b     0.29; O_a    -0.43; O_b    -0.51; 
@             H_a    -0.42; H_b    -0.55; H_c    -0.56; H_d    -0.56; H_e    -0.58; H_f    -0.61; H_g    -0.61; H_h    -0.59; H_i    -0.58; H_j    -0.62; 
@    MULPOP    dipole moment & components:     10.8939;       -4.6222      9.8646      0.0000
   2  Level shift: doubly occupied orbital energies shifted by -1.00D-01
 -----------------------------------------------------------------------------
   3  Screening settings (-IFTHRS, JTDIIS, DIFDEN, times)   -9    3    T  1.54D+00  1.54D+00
@  3    -874.797847222        8.55425D-01   -4.21D-01    3
      Virial theorem: -V/T =      2.001140
@    MULPOP   C_a     1.16; C_b     0.56; C_c     0.75; C_d     0.45; C_e     0.79; C_f     0.55; C_g     0.65; C_h     0.58; C_i     0.75; C_j     0.50; 
@             C_k     0.70; C_l     0.60; C_m     0.77; C_n     0.37; C_o     0.77; C_p     0.83; N_a    -0.30; N_b     0.79; O_a    -0.92; O_b    -0.86; 
@             H_a    -0.40; H_b    -0.59; H_c    -0.61; H_d    -0.60; H_e    -0.61; H_f    -0.64; H_g    -0.65; H_h    -0.63; H_i    -0.62; H_j    -0.65; 
@    MULPOP    dipole moment & components:      9.9950;       -4.9757      8.6685      0.0000
   3  Level shift: doubly occupied orbital energies shifted by -5.00D-02
 -----------------------------------------------------------------------------
   4  Screening settings (-IFTHRS, JTDIIS, DIFDEN, times)   -9    4    T  1.51D+00  1.51D+00
@  4    -874.851398254        2.66120D-01   -5.36D-02    4
      Virial theorem: -V/T =      2.002709
@    MULPOP   C_a     1.12; C_b     0.57; C_c     0.76; C_d     0.45; C_e     0.82; C_f     0.57; C_g     0.66; C_h     0.58; C_i     0.76; C_j     0.50; 
@             C_k     0.73; C_l     0.60; C_m     0.79; C_n     0.34; C_o     0.78; C_p     0.88; N_a    -0.32; N_b     0.59; O_a    -0.81; O_b    -0.82; 
@             H_a    -0.37; H_b    -0.57; H_c    -0.60; H_d    -0.60; H_e    -0.61; H_f    -0.64; H_g    -0.65; H_h    -0.63; H_i    -0.62; H_j    -0.66; 
@    MULPOP    dipole moment & components:      9.8426;       -5.0156      8.4688      0.0000
   4  Level shift: doubly occupied orbital energies shifted by -2.50D-02
 -----------------------------------------------------------------------------
   5  Screening settings (-IFTHRS, JTDIIS, DIFDEN, times)  -13    5    F  1.79D+00  1.79D+00
@  5    -874.862234295        1.09916D-01   -1.08D-02    5
      Virial theorem: -V/T =      2.002198
@    MULPOP   C_a     1.17; C_b     0.47; C_c     0.80; C_d     0.39; C_e     0.84; C_f     0.53; C_g     0.67; C_h     0.55; C_i     0.77; C_j     0.47; 
@             C_k     0.73; C_l     0.59; C_m     0.80; C_n     0.33; C_o     0.77; C_p     0.85; N_a    -0.34; N_b     0.61; O_a    -0.84; O_b    -0.81; 
@             H_a    -0.36; H_b    -0.57; H_c    -0.59; H_d    -0.58; H_e    -0.60; H_f    -0.63; H_g    -0.64; H_h    -0.62; H_i    -0.61; H_j    -0.65; 
@    MULPOP    dipole moment & components:      9.2016;       -5.0532      7.6898      0.0000
   5  Level shift: doubly occupied orbital energies shifted by -1.25D-02
 -----------------------------------------------------------------------------
   6  Screening settings (-IFTHRS, JTDIIS, DIFDEN, times)  -13    6    T  1.73D+00  1.73D+00
@  6    -874.865164006        5.64915D-02   -2.93D-03    6
      Virial theorem: -V/T =      2.002056
@    MULPOP   C_a     1.18; C_b     0.45; C_c     0.82; C_d     0.37; C_e     0.86; C_f     0.51; C_g     0.68; C_h     0.53; C_i     0.77; C_j     0.46; 
@             C_k     0.73; C_l     0.57; C_m     0.81; C_n     0.32; C_o     0.77; C_p     0.84; N_a    -0.34; N_b     0.59; O_a    -0.82; O_b    -0.81; 
@             H_a    -0.36; H_b    -0.56; H_c    -0.58; H_d    -0.58; H_e    -0.60; H_f    -0.63; H_g    -0.64; H_h    -0.62; H_i    -0.61; H_j    -0.65; 
@    MULPOP    dipole moment & components:      8.8876;       -5.0970      7.2809      0.0000
   6  Level shift: doubly occupied orbital energies shifted by -1.25D-02
 -----------------------------------------------------------------------------
   7  Screening settings (-IFTHRS, JTDIIS, DIFDEN, times)  -13    7    T  1.72D+00  1.72D+00
@  7    -874.866117726        2.60456D-02   -9.54D-04    7
      Virial theorem: -V/T =      2.002080
@    MULPOP   C_a     1.19; C_b     0.43; C_c     0.84; C_d     0.35; C_e     0.87; C_f     0.50; C_g     0.69; C_h     0.52; C_i     0.77; C_j     0.46; 
@             C_k     0.73; C_l     0.57; C_m     0.81; C_n     0.31; C_o     0.76; C_p     0.84; N_a    -0.34; N_b     0.58; O_a    -0.83; O_b    -0.80; 
@             H_a    -0.36; H_b    -0.56; H_c    -0.58; H_d    -0.58; H_e    -0.59; H_f    -0.62; H_g    -0.63; H_h    -0.61; H_i    -0.60; H_j    -0.64; 
@    MULPOP    dipole moment & components:      8.7044;       -5.0761      7.0710      0.0000
 -----------------------------------------------------------------------------
   8  Screening settings (-IFTHRS, JTDIIS, DIFDEN, times)  -13    8    T  1.69D+00  1.69D+00
@  8    -874.866317837        1.12754D-02   -2.00D-04    8
      Virial theorem: -V/T =      2.002080
@    MULPOP   C_a     1.20; C_b     0.42; C_c     0.85; C_d     0.34; C_e     0.87; C_f     0.49; C_g     0.69; C_h     0.52; C_i     0.77; C_j     0.46; 
@             C_k     0.73; C_l     0.57; C_m     0.81; C_n     0.32; C_o     0.76; C_p     0.85; N_a    -0.35; N_b     0.58; O_a    -0.82; O_b    -0.80; 
@             H_a    -0.36; H_b    -0.56; H_c    -0.58; H_d    -0.58; H_e    -0.60; H_f    -0.62; H_g    -0.63; H_h    -0.61; H_i    -0.61; H_j    -0.64; 
@    MULPOP    dipole moment & components:      8.5515;       -5.0582      6.8952      0.0000
 -----------------------------------------------------------------------------
   9  Screening settings (-IFTHRS, JTDIIS, DIFDEN, times)  -13    9    T  1.67D+00  1.67D+00
@  9    -874.866349118        4.43830D-03   -3.13D-05    8
      Virial theorem: -V/T =      2.002072
@    MULPOP   C_a     1.20; C_b     0.42; C_c     0.85; C_d     0.34; C_e     0.87; C_f     0.50; C_g     0.69; C_h     0.52; C_i     0.77; C_j     0.46; 
@             C_k     0.73; C_l     0.58; C_m     0.80; C_n     0.32; C_o     0.76; C_p     0.85; N_a    -0.35; N_b     0.58; O_a    -0.82; O_b    -0.80; 
@             H_a    -0.36; H_b    -0.56; H_c    -0.58; H_d    -0.58; H_e    -0.60; H_f    -0.62; H_g    -0.64; H_h    -0.61; H_i    -0.61; H_j    -0.65; 
@    MULPOP    dipole moment & components:      8.4817;       -5.0195      6.8370      0.0000
 -----------------------------------------------------------------------------
  10  Screening settings (-IFTHRS, JTDIIS, DIFDEN, times)  -13   10    T  1.64D+00  1.64D+00
@ 10    -874.866356539        2.55668D-03   -7.42D-06    8
      Virial theorem: -V/T =      2.002071
@    MULPOP   C_a     1.20; C_b     0.42; C_c     0.85; C_d     0.35; C_e     0.87; C_f     0.50; C_g     0.69; C_h     0.53; C_i     0.77; C_j     0.47; 
@             C_k     0.72; C_l     0.58; C_m     0.80; C_n     0.32; C_o     0.75; C_p     0.85; N_a    -0.35; N_b     0.58; O_a    -0.82; O_b    -0.80; 
@             H_a    -0.36; H_b    -0.56; H_c    -0.58; H_d    -0.58; H_e    -0.60; H_f    -0.62; H_g    -0.64; H_h    -0.61; H_i    -0.61; H_j    -0.65; 
@    MULPOP    dipole moment & components:      8.4403;       -4.9916      6.8060      0.0000
 -----------------------------------------------------------------------------
  11  Screening settings (-IFTHRS, JTDIIS, DIFDEN, times)  -13   11    T  1.62D+00  1.62D+00
@ 11    -874.866359560        1.45006D-03   -3.02D-06    8
      Virial theorem: -V/T =      2.002072
@    MULPOP   C_a     1.20; C_b     0.42; C_c     0.85; C_d     0.35; C_e     0.87; C_f     0.50; C_g     0.69; C_h     0.53; C_i     0.76; C_j     0.47; 
@             C_k     0.72; C_l     0.58; C_m     0.80; C_n     0.33; C_o     0.75; C_p     0.85; N_a    -0.35; N_b     0.58; O_a    -0.82; O_b    -0.80; 
@             H_a    -0.36; H_b    -0.56; H_c    -0.58; H_d    -0.58; H_e    -0.60; H_f    -0.62; H_g    -0.64; H_h    -0.61; H_i    -0.61; H_j    -0.65; 
@    MULPOP    dipole moment & components:      8.4049;       -4.9675      6.7798      0.0000
 -----------------------------------------------------------------------------
  12  Screening settings (-IFTHRS, JTDIIS, DIFDEN, times)  -13   12    T  1.61D+00  1.61D+00
@ 12    -874.866360575        4.71847D-04   -1.01D-06    8
      Virial theorem: -V/T =      2.002071
@    MULPOP   C_a     1.20; C_b     0.42; C_c     0.85; C_d     0.35; C_e     0.87; C_f     0.50; C_g     0.68; C_h     0.53; C_i     0.76; C_j     0.47; 
@             C_k     0.72; C_l     0.58; C_m     0.80; C_n     0.33; C_o     0.75; C_p     0.85; N_a    -0.35; N_b     0.58; O_a    -0.82; O_b    -0.80; 
@             H_a    -0.36; H_b    -0.56; H_c    -0.58; H_d    -0.58; H_e    -0.60; H_f    -0.62; H_g    -0.64; H_h    -0.61; H_i    -0.61; H_j    -0.65; 
@    MULPOP    dipole moment & components:      8.3788;       -4.9491      6.7609      0.0000
 -----------------------------------------------------------------------------
  13  Screening settings (-IFTHRS, JTDIIS, DIFDEN, times)  -13   13    T  1.60D+00  1.60D+00
@ 13    -874.866360671        2.05312D-04   -9.65D-08    8
      Virial theorem: -V/T =      2.002071
@    MULPOP   C_a     1.20; C_b     0.42; C_c     0.85; C_d     0.35; C_e     0.87; C_f     0.50; C_g     0.68; C_h     0.53; C_i     0.76; C_j     0.47; 
@             C_k     0.72; C_l     0.58; C_m     0.80; C_n     0.33; C_o     0.75; C_p     0.85; N_a    -0.35; N_b     0.58; O_a    -0.82; O_b    -0.80; 
@             H_a    -0.36; H_b    -0.56; H_c    -0.58; H_d    -0.58; H_e    -0.60; H_f    -0.62; H_g    -0.64; H_h    -0.61; H_i    -0.61; H_j    -0.65; 
@    MULPOP    dipole moment & components:      8.3707;       -4.9435      6.7550      0.0000
 -----------------------------------------------------------------------------
  14  Screening settings (-IFTHRS, JTDIIS, DIFDEN, times)  -13   14    T  1.54D+00  1.54D+00
@ 14    -874.866360679        9.18442D-05   -8.39D-09    8
      Virial theorem: -V/T =      2.002071
@    MULPOP   C_a     1.20; C_b     0.42; C_c     0.85; C_d     0.35; C_e     0.87; C_f     0.50; C_g     0.68; C_h     0.53; C_i     0.76; C_j     0.47; 
@             C_k     0.72; C_l     0.58; C_m     0.80; C_n     0.33; C_o     0.75; C_p     0.85; N_a    -0.35; N_b     0.58; O_a    -0.82; O_b    -0.80; 
@             H_a    -0.36; H_b    -0.56; H_c    -0.58; H_d    -0.58; H_e    -0.60; H_f    -0.62; H_g    -0.64; H_h    -0.61; H_i    -0.61; H_j    -0.65; 
@    MULPOP    dipole moment & components:      8.3692;       -4.9425      6.7539      0.0000
 -----------------------------------------------------------------------------
  15  Screening settings (-IFTHRS, JTDIIS, DIFDEN, times)  -13   15    T  1.52D+00  1.52D+00
@ 15    -874.866360681        4.17268D-05   -1.80D-09    8
      Virial theorem: -V/T =      2.002071
@    MULPOP   C_a     1.20; C_b     0.42; C_c     0.85; C_d     0.35; C_e     0.87; C_f     0.50; C_g     0.68; C_h     0.53; C_i     0.76; C_j     0.47; 
@             C_k     0.72; C_l     0.58; C_m     0.79; C_n     0.33; C_o     0.75; C_p     0.85; N_a    -0.35; N_b     0.58; O_a    -0.82; O_b    -0.80; 
@             H_a    -0.36; H_b    -0.56; H_c    -0.58; H_d    -0.58; H_e    -0.60; H_f    -0.62; H_g    -0.64; H_h    -0.61; H_i    -0.61; H_j    -0.65; 
@    MULPOP    dipole moment & components:      8.3685;       -4.9420      6.7534      0.0000
 -----------------------------------------------------------------------------
  16  Screening settings (-IFTHRS, JTDIIS, DIFDEN, times)  -13   16    T  1.50D+00  1.50D+00
@ 16    -874.866360681        1.71745D-05   -2.43D-10    8
      Virial theorem: -V/T =      2.002071
@    MULPOP   C_a     1.20; C_b     0.42; C_c     0.85; C_d     0.35; C_e     0.87; C_f     0.50; C_g     0.68; C_h     0.53; C_i     0.76; C_j     0.47; 
@             C_k     0.72; C_l     0.58; C_m     0.79; C_n     0.33; C_o     0.75; C_p     0.85; N_a    -0.35; N_b     0.58; O_a    -0.82; O_b    -0.80; 
@             H_a    -0.36; H_b    -0.56; H_c    -0.58; H_d    -0.58; H_e    -0.60; H_f    -0.62; H_g    -0.64; H_h    -0.61; H_i    -0.61; H_j    -0.65; 
@    MULPOP    dipole moment & components:      8.3684;       -4.9419      6.7534      0.0000
 -----------------------------------------------------------------------------
  17  Screening settings (-IFTHRS, JTDIIS, DIFDEN, times)  -13   17    T  1.50D+00  1.50D+00
@ 17    -874.866360682        1.11552D-05   -8.28D-11    8
      Virial theorem: -V/T =      2.002071
@    MULPOP   C_a     1.20; C_b     0.42; C_c     0.85; C_d     0.35; C_e     0.87; C_f     0.50; C_g     0.68; C_h     0.53; C_i     0.76; C_j     0.47; 
@             C_k     0.72; C_l     0.58; C_m     0.79; C_n     0.33; C_o     0.75; C_p     0.85; N_a    -0.35; N_b     0.58; O_a    -0.82; O_b    -0.80; 
@             H_a    -0.36; H_b    -0.56; H_c    -0.58; H_d    -0.58; H_e    -0.60; H_f    -0.62; H_g    -0.64; H_h    -0.61; H_i    -0.61; H_j    -0.65; 
@    MULPOP    dipole moment & components:      8.3684;       -4.9418      6.7533      0.0000
 -----------------------------------------------------------------------------
  18  Screening settings (-IFTHRS, JTDIIS, DIFDEN, times)  -13   18    T  1.49D+00  1.49D+00
@ 18    -874.866360682        5.10128D-06   -1.36D-11    8

@ *** DIIS converged in  18 iterations !
@     Converged SCF energy, gradient:   -874.866360681586    5.10D-06
    - total time used in SIRFCK :              0.00 seconds


 *** SCF orbital energy analysis ***

 Only the 20 lowest virtual orbital energies printed in each symmetry.

 Number of electrons :  144
 Orbital occupations :   72

 Sym       Hartree-Fock orbital energies

1 A     -20.59542115   -20.59264368   -15.84297433   -15.60391965   -11.31338213
        -11.29336846   -11.29154155   -11.28227100   -11.27402848   -11.26793966
        -11.26361436   -11.26325083   -11.26219414   -11.26028116   -11.25703605
        -11.25318785   -11.24889607   -11.24402763   -11.23876000   -11.23613349
         -1.58170636    -1.37933028    -1.24382714    -1.14360104    -1.12706089
         -1.11376159    -1.09582015    -1.07196306    -1.04280713    -1.00890757
         -0.97088834    -0.93832577    -0.88138907    -0.84118377    -0.80834257
         -0.78845102    -0.78203711    -0.77324111    -0.76300524    -0.75901772
         -0.73409591    -0.72211438    -0.71160526    -0.69435875    -0.68575909
         -0.66874188    -0.65873870    -0.64260401    -0.62453785    -0.60817537
         -0.59940891    -0.57530460    -0.56981691    -0.55604722    -0.54060651
         -0.53965931    -0.52854833    -0.52765603    -0.51925457    -0.51174574
         -0.50318620    -0.49567061    -0.47901429    -0.47850641    -0.47564185
         -0.45573850    -0.43765585    -0.42456588    -0.38554690    -0.33943640
         -0.28827312    -0.23714232     0.01114684     0.01950569     0.02714875
          0.03236106     0.03423872     0.03776198     0.04266515     0.04819374
          0.05514120     0.05842873     0.06101645     0.06938134     0.07752954
          0.08547573     0.09303455     0.09433201     0.09690442     0.09751324
          0.10146482     0.10175960

    E(LUMO) :     0.01114684 au (symmetry 1)
  - E(HOMO) :    -0.23714232 au (symmetry 1)
  ------------------------------------------
    gap     :     0.24828916 au

 --- Writing SIRIFC interface file

 CPU and wall time for SCF :      68.132      68.255


                       .-----------------------------------.
                       | --- Final results from SIRIUS --- |
                       `-----------------------------------'


@    Spin multiplicity:           1
@    Spatial symmetry:            1 ( irrep  A   in C1  )
@    Total charge of molecule:    0

@    Final HF energy:            -874.866360681586                 
@    Nuclear repulsion:          1124.842995138595
@    Electronic energy:         -1999.709355820180

@    Final gradient norm:           0.000005101279

 
     Date and time (Linux)  : Tue May 27 12:34:12 2025
     Host name              : xm059                                   

File label for MO orbitals:  27May25   FOCKDIIS

 (Only coefficients > 0.0100 are printed.)

 Molecular orbitals for symmetry species 1  (A  )
 ------------------------------------------------

    Orbital        63       64       65       66       67       68       69
   2 C_a :1s     0.0990   0.0000  -0.0069  -0.0000  -0.0000   0.0000  -0.0000
   3 C_a :1s     0.0283   0.0000  -0.1254  -0.0000   0.0000  -0.0000   0.0000
   4 C_a :1s    -0.2550  -0.0000  -0.3187   0.0000   0.0000   0.0000  -0.0000
   5 C_a :2px    0.2134  -0.0000  -0.1398   0.0000  -0.0000   0.0000  -0.0000
   6 C_a :2py   -0.2426   0.0000  -0.0116  -0.0000  -0.0000   0.0000  -0.0000
   7 C_a :2pz   -0.0000   0.1667   0.0000   0.2164  -0.0102  -0.2620  -0.2905
   8 C_a :2px   -0.0524   0.0000   0.0533  -0.0000   0.0000  -0.0000   0.0000
   9 C_a :2py    0.1653   0.0000   0.0014  -0.0000  -0.0000  -0.0000   0.0000
  10 C_a :2pz    0.0000  -0.0052   0.0000  -0.0040   0.0103   0.0027  -0.0009
  11 C_a :2px   -0.0501  -0.0000  -0.0417   0.0000   0.0000   0.0000  -0.0000
  12 C_a :2py   -0.0130  -0.0000  -0.0320   0.0000   0.0000   0.0000  -0.0000
  13 C_a :2pz    0.0000   0.0114   0.0000   0.0146   0.0038  -0.0180  -0.0224
  14 C_a :3d2-  -0.0228   0.0000   0.0024   0.0000  -0.0000  -0.0000   0.0000
  15 C_a :3d1-  -0.0000   0.0102  -0.0000   0.0118   0.0022  -0.0117  -0.0099
  19 C_a :3d2-   0.0397   0.0000  -0.0324  -0.0000  -0.0000   0.0000  -0.0000
  20 C_a :3d1-   0.0000   0.0071   0.0000   0.0101   0.0274  -0.0095  -0.0105
  22 C_a :3d1+   0.0000  -0.0011   0.0000  -0.0016   0.0120   0.0038   0.0052
  23 C_a :3d2+  -0.0425  -0.0000  -0.0116   0.0000   0.0000   0.0000  -0.0000
  25 C_b :1s    -0.0204   0.0000  -0.0532   0.0000   0.0000  -0.0000   0.0000
  26 C_b :1s    -0.1798  -0.0000  -0.0807   0.0000   0.0000  -0.0000   0.0000
  27 C_b :1s     0.1833   0.0000   0.3742  -0.0000  -0.0000   0.0000  -0.0000
  28 C_b :2px   -0.0160  -0.0000  -0.0704   0.0000  -0.0000   0.0000   0.0000
  29 C_b :2py    0.1501  -0.0000   0.0501  -0.0000   0.0000  -0.0000   0.0000
  30 C_b :2pz   -0.0000   0.2141   0.0000   0.2453  -0.0004  -0.2454  -0.2080
  31 C_b :2px    0.0517  -0.0000   0.1517   0.0000  -0.0000   0.0000  -0.0000
  32 C_b :2py    0.0469   0.0000  -0.1414  -0.0000  -0.0000  -0.0000   0.0000
  33 C_b :2pz   -0.0000  -0.0193  -0.0000  -0.0178  -0.0339   0.0082   0.0006
  34 C_b :2px   -0.0275  -0.0000  -0.0261   0.0000  -0.0000   0.0000   0.0000
  35 C_b :2py   -0.0665  -0.0000  -0.1659   0.0000   0.0000  -0.0000  -0.0000
  37 C_b :3d2-  -0.0121   0.0000  -0.0027  -0.0000   0.0000  -0.0000  -0.0000
  38 C_b :3d1-   0.0000  -0.0016   0.0000  -0.0053   0.0003   0.0111   0.0175
  42 C_b :3d2-  -0.0053  -0.0000   0.0411   0.0000  -0.0000   0.0000  -0.0000
  45 C_b :3d1+   0.0000   0.0015   0.0000   0.0017   0.0133  -0.0009  -0.0022
  46 C_b :3d2+  -0.0235   0.0000  -0.0246  -0.0000   0.0000  -0.0000   0.0000
  48 C_c :1s     0.0353  -0.0000   0.0054   0.0000   0.0000  -0.0000  -0.0000
  49 C_c :1s    -0.1069  -0.0000   0.0844   0.0000  -0.0000  -0.0000  -0.0000
  50 C_c :1s     0.1925   0.0000  -0.2828  -0.0000   0.0000   0.0000   0.0000
  51 C_c :2px    0.0436   0.0000   0.0588  -0.0000   0.0000  -0.0000   0.0000
  52 C_c :2py   -0.1044  -0.0000  -0.0082   0.0000  -0.0000   0.0000   0.0000
  53 C_c :2pz   -0.0000   0.2457  -0.0000   0.1993  -0.0120  -0.0773   0.0921
  54 C_c :2px   -0.0194  -0.0000   0.0795   0.0000  -0.0000   0.0000  -0.0000
  55 C_c :2py   -0.1120   0.0000  -0.1971  -0.0000   0.0000  -0.0000   0.0000
  56 C_c :2pz    0.0000  -0.0113   0.0000  -0.0090   0.0163   0.0083   0.0073
  57 C_c :2px    0.0387   0.0000  -0.0994  -0.0000   0.0000  -0.0000   0.0000
  58 C_c :2py    0.0419  -0.0000   0.0825   0.0000   0.0000   0.0000  -0.0000
  61 C_c :3d1-   0.0000   0.0042  -0.0000  -0.0018  -0.0008   0.0098   0.0161
  65 C_c :3d2-  -0.0101   0.0000  -0.0267  -0.0000  -0.0000  -0.0000   0.0000
  69 C_c :3d2+  -0.0027  -0.0000   0.0374  -0.0000   0.0000  -0.0000  -0.0000
  71 C_d :1s    -0.0240   0.0000   0.0049  -0.0000  -0.0000   0.0000  -0.0000
  72 C_d :1s     0.0547  -0.0000   0.1518   0.0000   0.0000   0.0000  -0.0000
  73 C_d :1s    -0.3743  -0.0000   0.1326   0.0000   0.0000  -0.0000   0.0000
  74 C_d :2px   -0.0160   0.0000  -0.0229  -0.0000   0.0000  -0.0000  -0.0000
  75 C_d :2py    0.0819   0.0000  -0.0045   0.0000  -0.0000   0.0000   0.0000
  76 C_d :2pz   -0.0000   0.2096   0.0000   0.0937  -0.0142   0.0784   0.2215
  77 C_d :2px    0.0026  -0.0000  -0.0328   0.0000   0.0000  -0.0000  -0.0000
  78 C_d :2py   -0.1361   0.0000  -0.1011  -0.0000   0.0000  -0.0000   0.0000
  79 C_d :2pz    0.0000  -0.0134  -0.0000  -0.0009   0.0002  -0.0079  -0.0040
  80 C_d :2px    0.0823   0.0000   0.0477  -0.0000   0.0000  -0.0000  -0.0000
  81 C_d :2py    0.1379   0.0000  -0.2073  -0.0000   0.0000  -0.0000   0.0000
  84 C_d :3d1-   0.0000  -0.0087   0.0000  -0.0124   0.0001   0.0111   0.0014
  88 C_d :3d2-   0.0475  -0.0000   0.0425   0.0000  -0.0000   0.0000  -0.0000
  92 C_d :3d2+  -0.0189  -0.0000   0.0189   0.0000  -0.0000  -0.0000   0.0000
  94 C_e :1s     0.0161   0.0000   0.0058  -0.0000   0.0000  -0.0000   0.0000
  95 C_e :1s     0.0646  -0.0000   0.0933   0.0000  -0.0000   0.0000  -0.0000
  96 C_e :1s     0.1730   0.0000   0.1248  -0.0000  -0.0000   0.0000  -0.0000
  97 C_e :2px    0.0307   0.0000   0.0117   0.0000  -0.0000   0.0000   0.0000
  98 C_e :2py   -0.0492   0.0000  -0.0125  -0.0000   0.0000  -0.0000  -0.0000
  99 C_e :2pz   -0.0000   0.1112   0.0000  -0.1019  -0.0137   0.2619   0.2129
 100 C_e :2px    0.0400  -0.0000   0.0437   0.0000  -0.0000   0.0000  -0.0000
 101 C_e :2py   -0.0643   0.0000   0.0172  -0.0000  -0.0000  -0.0000   0.0000
 103 C_e :2px    0.0995   0.0000   0.0353  -0.0000  -0.0000   0.0000   0.0000
 104 C_e :2py   -0.2084  -0.0000   0.0768   0.0000   0.0000   0.0000  -0.0000
 107 C_e :3d1-  -0.0000  -0.0042   0.0000  -0.0116   0.0002   0.0099  -0.0031
 111 C_e :3d2-   0.0047   0.0000   0.0123  -0.0000  -0.0000  -0.0000  -0.0000
 115 C_e :3d2+   0.0192  -0.0000   0.0213   0.0000  -0.0000   0.0000  -0.0000
 118 C_f :1s     0.0566  -0.0000   0.0134   0.0000  -0.0000   0.0000   0.0000
 119 C_f :1s     0.1070   0.0000  -0.1531  -0.0000   0.0000  -0.0000  -0.0000
 120 C_f :2px   -0.0130  -0.0000  -0.0006   0.0000  -0.0000   0.0000   0.0000
 121 C_f :2py    0.0368  -0.0000   0.0053   0.0000  -0.0000   0.0000  -0.0000
 122 C_f :2pz   -0.0000   0.0229   0.0000  -0.2027  -0.0073   0.2527   0.0518
 123 C_f :2px   -0.0268   0.0000  -0.0335   0.0000  -0.0000   0.0000   0.0000
 124 C_f :2py   -0.0238   0.0000   0.0457  -0.0000  -0.0000  -0.0000   0.0000
 125 C_f :2pz    0.0000   0.0028  -0.0000   0.0148   0.0041  -0.0055   0.0092
 126 C_f :2px   -0.0944  -0.0000   0.0598   0.0000   0.0000   0.0000   0.0000
 127 C_f :2py    0.1513   0.0000   0.0016  -0.0000  -0.0000   0.0000   0.0000
 128 C_f :2pz   -0.0000  -0.0029   0.0000  -0.0086  -0.0017   0.0128   0.0046
 130 C_f :3d1-  -0.0000  -0.0082  -0.0000  -0.0028   0.0008  -0.0103  -0.0172
 134 C_f :3d2-   0.0232   0.0000  -0.0041  -0.0000  -0.0000  -0.0000  -0.0000
 141 C_g :1s     0.0129   0.0000  -0.0287  -0.0000   0.0000  -0.0000   0.0000
 142 C_g :1s    -0.1698  -0.0000   0.0214   0.0000   0.0000  -0.0000  -0.0000
 143 C_g :2px    0.0173  -0.0000   0.0012   0.0000  -0.0000  -0.0000  -0.0000
 144 C_g :2py   -0.0258   0.0000  -0.0047   0.0000   0.0000   0.0000   0.0000
 145 C_g :2pz   -0.0000  -0.1096   0.0000  -0.2747   0.0069   0.0824  -0.2336
 146 C_g :2px    0.0061   0.0000  -0.0201   0.0000  -0.0000   0.0000  -0.0000
 147 C_g :2py    0.0107   0.0000   0.0309  -0.0000   0.0000  -0.0000   0.0000
 148 C_g :2pz    0.0000   0.0025  -0.0000   0.0110  -0.0010  -0.0091  -0.0032
 149 C_g :2px   -0.0595  -0.0000   0.0374   0.0000   0.0000  -0.0000  -0.0000
 150 C_g :2py   -0.0617  -0.0000  -0.1121   0.0000   0.0000   0.0000  -0.0000
 151 C_g :2pz   -0.0000  -0.0011   0.0000  -0.0062   0.0012   0.0012  -0.0107
 153 C_g :3d1-   0.0000  -0.0088  -0.0000  -0.0058   0.0008  -0.0101  -0.0141
 164 C_h :1s    -0.0107  -0.0000  -0.0258  -0.0000  -0.0000  -0.0000  -0.0000
 165 C_h :1s     0.0576  -0.0000   0.0724   0.0000  -0.0000   0.0000   0.0000
 167 C_h :2py    0.0185   0.0000   0.0037  -0.0000   0.0000  -0.0000  -0.0000
 168 C_h :2pz   -0.0000  -0.1852   0.0000  -0.2429   0.0138  -0.0754  -0.2659
 171 C_h :2pz    0.0000   0.0160  -0.0000   0.0105  -0.0013   0.0108   0.0015
 172 C_h :2px   -0.0085   0.0000  -0.0333  -0.0000   0.0000  -0.0000  -0.0000
 173 C_h :2py   -0.0482  -0.0000   0.0310   0.0000   0.0000  -0.0000  -0.0000
 174 C_h :2pz   -0.0000  -0.0018   0.0000  -0.0034   0.0011  -0.0050  -0.0152
 176 C_h :3d1-   0.0000  -0.0023  -0.0000   0.0097   0.0002  -0.0113   0.0093
 187 C_i :1s    -0.0057   0.0000  -0.0116   0.0000   0.0000  -0.0000  -0.0000
 188 C_i :1s     0.0692   0.0000  -0.0359  -0.0000  -0.0000   0.0000   0.0000
 190 C_i :2py   -0.0136  -0.0000  -0.0020  -0.0000  -0.0000   0.0000   0.0000
 191 C_i :2pz    0.0000  -0.2680  -0.0000  -0.1150   0.0168  -0.2602  -0.0771
 193 C_i :2py   -0.0094   0.0000  -0.0104  -0.0000   0.0000  -0.0000   0.0000
 194 C_i :2pz   -0.0000   0.0154   0.0000   0.0101   0.0003   0.0034   0.0101
 196 C_i :2py    0.0687   0.0000  -0.0759  -0.0000  -0.0000   0.0000   0.0000
 199 C_i :3d1-   0.0000  -0.0082  -0.0000   0.0066   0.0002  -0.0104   0.0122
 211 C_j :1s    -0.0806  -0.0000   0.0155   0.0000   0.0000  -0.0000   0.0000
 214 C_j :2pz    0.0000  -0.2925  -0.0000   0.0054   0.0125  -0.2687   0.1061
 216 C_j :2py   -0.0121   0.0000  -0.0112  -0.0000   0.0000  -0.0000   0.0000
 217 C_j :2pz   -0.0000   0.0213   0.0000  -0.0059  -0.0008   0.0086  -0.0106
 218 C_j :2px    0.0260   0.0000  -0.0043  -0.0000  -0.0000   0.0000   0.0000
 219 C_j :2py   -0.0579  -0.0000   0.0215   0.0000   0.0000   0.0000   0.0000
 222 C_j :3d1-  -0.0000   0.0040   0.0000   0.0103  -0.0008   0.0087   0.0119
 224 C_j :3d1+  -0.0000   0.0108  -0.0000  -0.0028  -0.0003   0.0071  -0.0063
 234 C_k :1s     0.0171  -0.0000   0.0229   0.0000  -0.0000  -0.0000  -0.0000
 237 C_k :2pz    0.0000  -0.2963   0.0000   0.1778   0.0007  -0.1302   0.2818
 239 C_k :2py   -0.0170   0.0000  -0.0060   0.0000   0.0000  -0.0000   0.0000
 240 C_k :2pz   -0.0000   0.0194   0.0000  -0.0042  -0.0005   0.0110  -0.0024
 241 C_k :2px   -0.0169  -0.0000   0.0146   0.0000  -0.0000  -0.0000  -0.0000
 242 C_k :2py    0.0605   0.0000  -0.0510  -0.0000   0.0000  -0.0000  -0.0000
 243 C_k :2pz    0.0000  -0.0036  -0.0000   0.0040   0.0007  -0.0071   0.0144
 245 C_k :3d1-  -0.0000  -0.0042   0.0000   0.0112  -0.0007   0.0082   0.0073
 247 C_k :3d1+   0.0000  -0.0114  -0.0000   0.0043   0.0002  -0.0066   0.0070
 257 C_l :1s     0.0373   0.0000  -0.0358  -0.0000  -0.0000   0.0000   0.0000
 260 C_l :2pz    0.0000  -0.2688   0.0000   0.2539  -0.0078   0.0243   0.2152
 262 C_l :2py   -0.0149  -0.0000   0.0008   0.0000  -0.0000  -0.0000   0.0000
 263 C_l :2pz   -0.0000   0.0199  -0.0000  -0.0184   0.0010  -0.0102   0.0035
 265 C_l :2py   -0.0671  -0.0000   0.0079   0.0000  -0.0000   0.0000  -0.0000
 268 C_l :3d1-  -0.0000   0.0076  -0.0000   0.0001  -0.0005   0.0130  -0.0155
 280 C_m :1s    -0.0464  -0.0000   0.0299  -0.0000   0.0000   0.0000  -0.0000
 283 C_m :2pz    0.0000  -0.2085   0.0000   0.2937  -0.0168   0.2352  -0.0610
 286 C_m :2pz    0.0000   0.0125  -0.0000  -0.0115   0.0001   0.0007  -0.0112
 287 C_m :2px   -0.0178  -0.0000   0.0123  -0.0000  -0.0000   0.0000  -0.0000
 288 C_m :2py    0.0641   0.0000  -0.0419   0.0000   0.0000  -0.0000   0.0000
 291 C_m :3d1-  -0.0000   0.0006   0.0000   0.0044  -0.0006   0.0120  -0.0158
 293 C_m :3d1+   0.0000  -0.0089   0.0000   0.0105  -0.0005   0.0057   0.0016
 303 C_n :1s     0.0161  -0.0000   0.0142   0.0000   0.0000  -0.0000   0.0000
 306 C_n :2pz    0.0000  -0.1460   0.0000   0.2484  -0.0170   0.2772  -0.2112
 309 C_n :2pz   -0.0000   0.0129   0.0000  -0.0169   0.0010  -0.0152   0.0125
 310 C_n :2px    0.0138   0.0000  -0.0039  -0.0000  -0.0000   0.0000   0.0000
 311 C_n :2py   -0.0567  -0.0000   0.0062  -0.0000  -0.0000   0.0000  -0.0000
 314 C_n :3d1-   0.0000   0.0082   0.0000  -0.0102   0.0005  -0.0054  -0.0049
 326 C_o :1s     0.0213   0.0000  -0.0145  -0.0000  -0.0000  -0.0000   0.0000
 329 C_o :2pz    0.0000  -0.0447  -0.0000   0.1150  -0.0099   0.1915  -0.2561
 332 C_o :2pz   -0.0000   0.0065   0.0000  -0.0110   0.0008  -0.0117   0.0062
 334 C_o :2py    0.0359   0.0000  -0.0196   0.0000   0.0000  -0.0000   0.0000
 335 C_o :2pz    0.0000  -0.0017  -0.0000   0.0042  -0.0004   0.0081  -0.0154
 349 C_p :1s    -0.0166  -0.0000   0.0328  -0.0000  -0.0000   0.0000   0.0000
 352 C_p :2pz    0.0000   0.0359  -0.0000  -0.0197  -0.0003   0.0256  -0.0866
 355 C_p :2pz   -0.0000  -0.0087   0.0000   0.0103  -0.0007   0.0099  -0.0094
 358 C_p :2pz    0.0000  -0.0022  -0.0000   0.0045  -0.0005   0.0084  -0.0127
 360 C_p :3d1-  -0.0000   0.0069  -0.0000  -0.0124   0.0010  -0.0174   0.0215
 365 C_p :3d1-   0.0000  -0.0008  -0.0000  -0.0018   0.0003  -0.0063   0.0109
 375 N_a :2pz    0.0000   0.1307  -0.0000  -0.1902   0.0129  -0.2186   0.2334
 378 N_a :2pz   -0.0000   0.0101   0.0000  -0.0155   0.0011  -0.0193   0.0230
 381 N_a :2pz    0.0000   0.0132  -0.0000  -0.0217   0.0017  -0.0295   0.0376
 393 N_b :1s     0.0211  -0.0000  -0.0022  -0.0000   0.0000  -0.0000   0.0000
 394 N_b :1s     0.0622   0.0000  -0.0222   0.0000  -0.0000   0.0000  -0.0000
 395 N_b :1s     0.1009   0.0000   0.0346   0.0000  -0.0000   0.0000   0.0000
 396 N_b :2px   -0.2144   0.0000  -0.0174  -0.0000   0.0000   0.0000   0.0000
 397 N_b :2py    0.1851  -0.0000  -0.1121   0.0000   0.0000   0.0000  -0.0000
 398 N_b :2pz    0.0000  -0.0275   0.0000  -0.0278  -0.0074   0.0213   0.0098
 399 N_b :2px   -0.0188  -0.0000   0.0425   0.0000   0.0000  -0.0000   0.0000
 400 N_b :2py    0.0394   0.0000   0.0281  -0.0000  -0.0000   0.0000   0.0000
 402 N_b :2px   -0.0365  -0.0000   0.0025  -0.0000   0.0000  -0.0000  -0.0000
 403 N_b :2py    0.0252   0.0000   0.0011  -0.0000  -0.0000   0.0000  -0.0000
 404 N_b :2pz    0.0000  -0.0131   0.0000  -0.0146  -0.0001   0.0139   0.0112
 405 N_b :3d2-  -0.0607  -0.0000   0.0155   0.0000   0.0000   0.0000  -0.0000
 406 N_b :3d1-   0.0000   0.0053   0.0000   0.0075   0.0397  -0.0058  -0.0081
 408 N_b :3d1+   0.0000  -0.0039   0.0000  -0.0044   0.0408   0.0088   0.0082
 409 N_b :3d2+  -0.0100  -0.0000  -0.0430  -0.0000   0.0000   0.0000  -0.0000
 410 N_b :3d2-  -0.0244   0.0000   0.0038  -0.0000  -0.0000  -0.0000   0.0000
 412 N_b :3d0    0.0109   0.0000  -0.0024  -0.0000  -0.0000  -0.0000  -0.0000
 414 N_b :3d2+   0.0043   0.0000   0.0246  -0.0000   0.0000  -0.0000   0.0000
 417 O_a :1s     0.0453   0.0000   0.0080  -0.0000   0.0000  -0.0000  -0.0000
 418 O_a :1s     0.0115   0.0000  -0.0098  -0.0000  -0.0000   0.0000  -0.0000
 419 O_a :2px    0.6131   0.0000   0.5513  -0.0000  -0.0000  -0.0000   0.0000
 420 O_a :2py   -0.3857  -0.0000   0.0274   0.0000  -0.0000  -0.0000   0.0000
 421 O_a :2pz   -0.0000  -0.0643  -0.0000  -0.0915  -0.6421   0.0550   0.0857
 422 O_a :2px    0.0437  -0.0000   0.0316  -0.0000   0.0000   0.0000  -0.0000
 424 O_a :2pz    0.0000  -0.0037   0.0000  -0.0057  -0.0501   0.0029   0.0057
 425 O_a :2px    0.0534   0.0000   0.0446  -0.0000  -0.0000  -0.0000   0.0000
 426 O_a :2py   -0.0240  -0.0000  -0.0066   0.0000  -0.0000  -0.0000   0.0000
 427 O_a :2pz   -0.0000  -0.0012  -0.0000  -0.0037  -0.0651   0.0011   0.0067
 428 O_a :3d2-   0.0044  -0.0000   0.0101  -0.0000   0.0000   0.0000  -0.0000
 429 O_a :3d1-   0.0000  -0.0018   0.0000  -0.0023  -0.0135   0.0013   0.0017
 433 O_a :3d2-   0.0173   0.0000   0.0234  -0.0000  -0.0000  -0.0000   0.0000
 434 O_a :3d1-  -0.0000  -0.0033  -0.0000  -0.0044  -0.0292   0.0024   0.0035
 437 O_a :3d2+   0.0117   0.0000   0.0026  -0.0000   0.0000   0.0000  -0.0000
 440 O_b :1s     0.0386   0.0000  -0.0261   0.0000  -0.0000   0.0000  -0.0000
 441 O_b :1s     0.0360   0.0000  -0.0170  -0.0000  -0.0000  -0.0000   0.0000
 442 O_b :2px    0.3454  -0.0000  -0.1416   0.0000  -0.0000  -0.0000  -0.0000
 443 O_b :2py   -0.3034  -0.0000   0.7685   0.0000  -0.0000  -0.0000  -0.0000
 444 O_b :2pz    0.0000  -0.0478   0.0000  -0.0491   0.6465   0.1098   0.0945
 445 O_b :2px   -0.0105  -0.0000  -0.0002  -0.0000   0.0000   0.0000   0.0000
 446 O_b :2py   -0.0254   0.0000   0.0523  -0.0000   0.0000   0.0000   0.0000
 447 O_b :2pz   -0.0000  -0.0015  -0.0000  -0.0015   0.0508   0.0068   0.0066
 448 O_b :2px    0.0117  -0.0000  -0.0097   0.0000  -0.0000  -0.0000  -0.0000
 449 O_b :2py   -0.0344  -0.0000   0.0634   0.0000   0.0000  -0.0000  -0.0000
 450 O_b :2pz    0.0000   0.0013   0.0000   0.0015   0.0661   0.0055   0.0063
 451 O_b :3d2-  -0.0002  -0.0000  -0.0113   0.0000  -0.0000  -0.0000  -0.0000
 454 O_b :3d1+   0.0000   0.0014   0.0000   0.0014  -0.0134  -0.0025  -0.0019
 456 O_b :3d2-   0.0053   0.0000  -0.0296  -0.0000  -0.0000   0.0000   0.0000
 459 O_b :3d1+  -0.0000   0.0017  -0.0000   0.0016  -0.0286  -0.0042  -0.0034
 461 H_a :1s    -0.0790   0.0000   0.1371  -0.0000   0.0000  -0.0000   0.0000
 462 H_a :1s     0.0431   0.0000   0.0645   0.0000  -0.0000  -0.0000  -0.0000
 467 H_a :2px   -0.0006   0.0000   0.0235  -0.0000  -0.0000  -0.0000   0.0000
 468 H_a :2py    0.0299   0.0000   0.0143  -0.0000  -0.0000   0.0000  -0.0000
 470 H_b :1s    -0.0133  -0.0000  -0.0493   0.0000  -0.0000   0.0000   0.0000
 471 H_b :1s    -0.0201  -0.0000  -0.0776  -0.0000   0.0000   0.0000  -0.0000
 472 H_b :1s     0.0566   0.0000  -0.0087  -0.0000   0.0000   0.0000  -0.0000
 476 H_b :2px    0.0082   0.0000   0.0353   0.0000  -0.0000   0.0000  -0.0000
 479 H_c :1s     0.0051  -0.0000  -0.0573   0.0000  -0.0000   0.0000  -0.0000
 480 H_c :1s    -0.0235  -0.0000  -0.0042   0.0000   0.0000  -0.0000  -0.0000
 481 H_c :1s    -0.0108  -0.0000  -0.0436  -0.0000   0.0000   0.0000  -0.0000
 486 H_c :2py    0.0113  -0.0000   0.0019   0.0000  -0.0000   0.0000   0.0000
 488 H_d :1s    -0.0105   0.0000  -0.0283  -0.0000   0.0000  -0.0000  -0.0000
 489 H_d :1s     0.0162  -0.0000  -0.0256   0.0000  -0.0000   0.0000   0.0000
 490 H_d :1s    -0.0813  -0.0000   0.0485   0.0000  -0.0000   0.0000   0.0000
 495 H_d :2py   -0.0175   0.0000  -0.0041  -0.0000   0.0000  -0.0000   0.0000
 498 H_e :1s    -0.0185   0.0000  -0.0108   0.0000   0.0000  -0.0000   0.0000
 499 H_e :1s     0.0438   0.0000   0.0289  -0.0000  -0.0000  -0.0000   0.0000
 506 H_f :1s    -0.0118  -0.0000  -0.0010   0.0000  -0.0000   0.0000   0.0000
 508 H_f :1s     0.0445   0.0000  -0.0531  -0.0000   0.0000   0.0000  -0.0000
 517 H_g :1s    -0.0476  -0.0000  -0.0066   0.0000   0.0000   0.0000  -0.0000
 526 H_h :1s    -0.0124  -0.0000   0.0368   0.0000  -0.0000  -0.0000   0.0000
 535 H_i :1s     0.0295   0.0000   0.0016  -0.0000  -0.0000   0.0000   0.0000
 544 H_j :1s     0.0017  -0.0000  -0.0152  -0.0000   0.0000   0.0000  -0.0000
 553 H_k :1s    -0.0128  -0.0000   0.0001   0.0000   0.0000  -0.0000  -0.0000

    Orbital        70       71       72       73       74       75       76
   2 C_a :1s     0.0000   0.0000   0.0000  -0.0000  -0.0080  -0.0100  -0.0181
   3 C_a :1s     0.0000   0.0000  -0.0000  -0.0000   0.0137   0.0476   0.1037
   4 C_a :1s    -0.0000  -0.0000  -0.0000  -0.0000   3.6711   3.3868   5.5938
   5 C_a :2px    0.0000   0.0000   0.0000   0.0000   0.0017   0.0060   0.0138
   7 C_a :2pz    0.2901  -0.2411   0.1256  -0.2369  -0.0000  -0.0000   0.0000
   8 C_a :2px   -0.0000  -0.0000   0.0000  -0.0000  -0.1079  -0.0425   0.0221
   9 C_a :2py    0.0000   0.0000  -0.0000   0.0000  -0.0911  -0.0475  -0.0750
  10 C_a :2pz    0.0058  -0.0106   0.0085  -0.0451   0.0000  -0.0000  -0.0000
  11 C_a :2px    0.0000  -0.0000  -0.0000  -0.0000   0.5278   0.5495   0.5543
  12 C_a :2py   -0.0000  -0.0000  -0.0000  -0.0000   0.7103   0.5584   1.6603
  13 C_a :2pz    0.0288  -0.0323   0.0205  -0.1506  -0.0000  -0.0000   0.0000
  15 C_a :3d1-   0.0064  -0.0022  -0.0004   0.0206  -0.0000   0.0000  -0.0000
  19 C_a :3d2-   0.0000   0.0000   0.0000  -0.0000  -0.0025   0.0014   0.0196
  20 C_a :3d1-   0.0094  -0.0069   0.0028   0.0118  -0.0000  -0.0000   0.0000
  21 C_a :3d0   -0.0000   0.0000  -0.0000   0.0000  -0.0141  -0.0114  -0.0166
  23 C_a :3d2+  -0.0000  -0.0000   0.0000  -0.0000  -0.0025   0.0066   0.0350
  25 C_b :1s    -0.0000  -0.0000  -0.0000   0.0000  -0.0025   0.0072   0.0206
  26 C_b :1s    -0.0000  -0.0000   0.0000  -0.0000   0.0036  -0.0239  -0.0226
  27 C_b :1s    -0.0000   0.0000   0.0000   0.0000  -0.6494  -2.9646  -6.0593
  28 C_b :2px    0.0000  -0.0000  -0.0000  -0.0000  -0.0010   0.0057   0.0178
  30 C_b :2pz    0.1389  -0.0585   0.0039   0.2508  -0.0000   0.0000  -0.0000
  31 C_b :2px    0.0000  -0.0000  -0.0000   0.0000   0.0281  -0.0171  -0.0917
  32 C_b :2py    0.0000  -0.0000   0.0000  -0.0000  -0.0687  -0.0175  -0.0343
  33 C_b :2pz    0.0044  -0.0040   0.0012   0.0419   0.0000   0.0000  -0.0000
  34 C_b :2px    0.0000  -0.0000  -0.0000  -0.0000  -0.4278   0.2027   0.9633
  35 C_b :2py   -0.0000  -0.0000  -0.0000  -0.0000   1.6831   1.6168   1.0017
  36 C_b :2pz    0.0085  -0.0122   0.0101   0.1797  -0.0000   0.0000  -0.0000
  38 C_b :3d1-  -0.0222   0.0215  -0.0121   0.0186  -0.0000   0.0000  -0.0000
  42 C_b :3d2-  -0.0000   0.0000   0.0000   0.0000  -0.0071  -0.0041   0.0194
  43 C_b :3d1-  -0.0099   0.0125  -0.0080   0.0194  -0.0000  -0.0000   0.0000
  44 C_b :3d0    0.0000   0.0000   0.0000  -0.0000  -0.0096   0.0025   0.0153
  46 C_b :3d2+  -0.0000   0.0000   0.0000  -0.0000  -0.0417  -0.0187   0.0223
  48 C_c :1s    -0.0000  -0.0000  -0.0000  -0.0000  -0.0052  -0.0142  -0.0300
  49 C_c :1s    -0.0000   0.0000   0.0000  -0.0000   0.0608   0.0864   0.2334
  50 C_c :1s     0.0000  -0.0000   0.0000  -0.0000   0.2092   3.8305   8.9875
  51 C_c :2px   -0.0000   0.0000  -0.0000   0.0000   0.0024   0.0113   0.0231
  53 C_c :2pz   -0.2424   0.2911  -0.1779   0.2119  -0.0000  -0.0000   0.0000
  54 C_c :2px   -0.0000   0.0000   0.0000   0.0000  -0.0320  -0.0487  -0.0276
  55 C_c :2py   -0.0000   0.0000   0.0000  -0.0000   0.0094   0.0169   0.0524
  56 C_c :2pz   -0.0086   0.0121  -0.0102   0.0254  -0.0000  -0.0000   0.0000
  57 C_c :2px    0.0000   0.0000   0.0000  -0.0000  -0.5877   0.6558   0.6252
  58 C_c :2py   -0.0000  -0.0000  -0.0000  -0.0000   1.4795   0.3944   2.8141
  59 C_c :2pz   -0.0232   0.0436  -0.0358   0.1416  -0.0000   0.0000  -0.0000
  61 C_c :3d1-  -0.0165   0.0106  -0.0030  -0.0220   0.0000  -0.0000   0.0000
  65 C_c :3d2-  -0.0000   0.0000   0.0000  -0.0000  -0.0234  -0.0007   0.0377
  66 C_c :3d1-  -0.0039   0.0032  -0.0006  -0.0248  -0.0000   0.0000   0.0000
  67 C_c :3d0   -0.0000   0.0000  -0.0000   0.0000  -0.0125  -0.0149  -0.0344
  69 C_c :3d2+  -0.0000   0.0000  -0.0000   0.0000  -0.0328  -0.0113   0.0370
  71 C_d :1s    -0.0000  -0.0000   0.0000   0.0000  -0.0019   0.0160   0.0412
  72 C_d :1s     0.0000   0.0000   0.0000   0.0000   0.0180  -0.0858  -0.1805
  73 C_d :1s     0.0000   0.0000  -0.0000   0.0000   1.1504  -4.0377 -11.0440
  74 C_d :2px    0.0000  -0.0000  -0.0000  -0.0000  -0.0016   0.0137   0.0373
  76 C_d :2pz   -0.2547   0.1684  -0.0469  -0.2804  -0.0000  -0.0000   0.0000
  77 C_d :2px    0.0000  -0.0000  -0.0000  -0.0000   0.0803   0.0113  -0.1001
  78 C_d :2py   -0.0000   0.0000   0.0000  -0.0000   0.0638   0.0298   0.0382
  79 C_d :2pz   -0.0077   0.0127  -0.0073  -0.0350   0.0000   0.0000  -0.0000
  80 C_d :2px   -0.0000  -0.0000   0.0000  -0.0000  -0.5914   0.2063   1.9108
  81 C_d :2py    0.0000   0.0000   0.0000  -0.0000   1.2421   2.1608   0.6874
  82 C_d :2pz   -0.0174   0.0267  -0.0237  -0.1796  -0.0000  -0.0000   0.0000
  84 C_d :3d1-   0.0136  -0.0236   0.0167  -0.0174   0.0000  -0.0000  -0.0000
  88 C_d :3d2-  -0.0000  -0.0000  -0.0000   0.0000  -0.0306  -0.0182  -0.0076
  89 C_d :3d1-   0.0083  -0.0179   0.0139  -0.0233  -0.0000  -0.0000   0.0000
  90 C_d :3d0   -0.0000   0.0000   0.0000  -0.0000  -0.0082   0.0086   0.0326
  92 C_d :3d2+  -0.0000   0.0000   0.0000   0.0000  -0.0137  -0.0177   0.0236
  94 C_e :1s    -0.0000   0.0000  -0.0000  -0.0000  -0.0039  -0.0191  -0.0363
  95 C_e :1s     0.0000   0.0000   0.0000   0.0000   0.0525   0.0778   0.2342
  96 C_e :1s    -0.0000   0.0000   0.0000  -0.0000   0.1850   5.3853  13.2463
  97 C_e :2px   -0.0000  -0.0000  -0.0000   0.0000   0.0025   0.0149   0.0242
  99 C_e :2pz    0.0365  -0.2695   0.2306  -0.1918   0.0000  -0.0000   0.0000
 100 C_e :2px    0.0000  -0.0000  -0.0000   0.0000  -0.0686  -0.0579  -0.0339
 101 C_e :2py    0.0000   0.0000   0.0000   0.0000   0.0738  -0.0060   0.0199
 102 C_e :2pz    0.0099  -0.0149   0.0142  -0.0229  -0.0000   0.0000  -0.0000
 103 C_e :2px    0.0000   0.0000   0.0000  -0.0000  -0.6405   0.8705   1.5605
 104 C_e :2py   -0.0000  -0.0000  -0.0000   0.0000   2.6892   0.5211   3.3770
 105 C_e :2pz    0.0032  -0.0440   0.0522  -0.1532   0.0000  -0.0000   0.0000
 107 C_e :3d1-   0.0166  -0.0174   0.0068   0.0235   0.0000   0.0000  -0.0000
 111 C_e :3d2-   0.0000   0.0000   0.0000   0.0000  -0.0136   0.0062   0.0482
 112 C_e :3d1-   0.0085  -0.0102   0.0047   0.0256  -0.0000   0.0000   0.0000
 113 C_e :3d0    0.0000  -0.0000  -0.0000   0.0000  -0.0098  -0.0201  -0.0452
 115 C_e :3d2+  -0.0000  -0.0000  -0.0000   0.0000  -0.0480  -0.0099   0.0520
 117 C_f :1s     0.0000  -0.0000  -0.0000   0.0000  -0.0017   0.0235   0.0518
 118 C_f :1s     0.0000  -0.0000  -0.0000   0.0000   0.0319  -0.1266  -0.2453
 119 C_f :1s    -0.0000  -0.0000  -0.0000  -0.0000   0.0824  -6.6134 -14.7850
 120 C_f :2px   -0.0000   0.0000   0.0000  -0.0000  -0.0006   0.0214   0.0465
 121 C_f :2py   -0.0000  -0.0000  -0.0000   0.0000  -0.0004   0.0049   0.0108
[...]

       No.  Residual tot.,    conf., and orb.    Bnorm      Frequency 
      ----------------------------------------------------------------
         1    1.27412D-01  0.00D+00  1.27D-01  7.23D+01    0.00000D+00
         2    1.31954D-01  0.00D+00  1.32D-01  7.51D+01    1.82000D-02
         3    1.47584D-01  0.00D+00  1.48D-01  8.47D+01    3.64000D-02

 ** RSPCTL MICROITERATION NUMBER    7

       No.  Residual tot.,    conf., and orb.    Bnorm      Frequency 
      ----------------------------------------------------------------
         1    4.10910D-02  0.00D+00  4.11D-02  7.23D+01    0.00000D+00
         2    4.30000D-02  0.00D+00  4.30D-02  7.51D+01    1.82000D-02
         3    4.96662D-02  0.00D+00  4.97D-02  8.47D+01    3.64000D-02

 *** THE REQUESTED    3 SOLUTION VECTORS CONVERGED

 Convergence of RSP solution vectors, threshold = 1.00D-03
 ---------------------------------------------------------------
 (dimension of paired reduced space:   42)
 RSP solution vector no.    1; norm of residual   5.69D-04
 RSP solution vector no.    2; norm of residual   5.72D-04
 RSP solution vector no.    3; norm of residual   5.86D-04

 *** RSPCTL MICROITERATIONS CONVERGED

@ QRLRVE: SINGLET SOLUTION FOR SYMMETRY    1  ( A  )    LABEL   YDIPLEN     FREQUENCY   0.000000D+00

@ QRLRVE:  << XDIPLEN  ; YDIPLEN  >> (   0.00000):    -151.940132247    

@ QRLRVE:  << YDIPLEN  ; YDIPLEN  >> (   0.00000):     1204.35191316    

@ QRLRVE:  << ZDIPLEN  ; YDIPLEN  >> (   0.00000):   -3.343677975809E-14

@ QRLRVE: SINGLET SOLUTION FOR SYMMETRY    1  ( A  )    LABEL   YDIPLEN     FREQUENCY   0.182000D-01

@ QRLRVE:  << XDIPLEN  ; YDIPLEN  >> (   0.01820):    -156.321460419    

@ QRLRVE:  << YDIPLEN  ; YDIPLEN  >> (   0.01820):     1233.54400799    

@ QRLRVE:  << ZDIPLEN  ; YDIPLEN  >> (   0.01820):   -3.509954063285E-14

@ QRLRVE: SINGLET SOLUTION FOR SYMMETRY    1  ( A  )    LABEL   YDIPLEN     FREQUENCY   0.364000D-01

@ QRLRVE:  << XDIPLEN  ; YDIPLEN  >> (   0.03640):    -171.121648308    

@ QRLRVE:  << YDIPLEN  ; YDIPLEN  >> (   0.03640):     1331.95798149    

@ QRLRVE:  << ZDIPLEN  ; YDIPLEN  >> (   0.03640):   -4.074195157144E-14


 QRLRVE -- linear response calculation for symmetry  1  ( A  )
 QRLRVE -- operator label : ZDIPLEN 
 QRLRVE -- operator spin  :   0
 QRLRVE -- frequencies :  0.000000  0.018200  0.036400



 ---  SOLVING SETS OF LINEAR EQUATIONS FOR LINEAR RESPONSE PROPERTIES ---

 Operator symmetry = 1  ( A  ); triplet =   F


 ** RSPCTL MICROITERATION NUMBER    1

       No.  Residual tot.,    conf., and orb.    Bnorm      Frequency 
      ----------------------------------------------------------------
         1    3.48921D+00  0.00D+00  3.49D+00  9.06D+00    0.00000D+00
         2    3.49203D+00  0.00D+00  3.49D+00  9.08D+00    1.82000D-02
         3    3.50057D+00  0.00D+00  3.50D+00  9.16D+00    3.64000D-02

 ** RSPCTL MICROITERATION NUMBER    2

       No.  Residual tot.,    conf., and orb.    Bnorm      Frequency 
      ----------------------------------------------------------------
         1    7.74986D-01  0.00D+00  7.75D-01  9.48D+00    0.00000D+00
         2    7.76947D-01  0.00D+00  7.77D-01  9.50D+00    1.82000D-02
         3    7.82892D-01  0.00D+00  7.83D-01  9.59D+00    3.64000D-02

 ** RSPCTL MICROITERATION NUMBER    3

       No.  Residual tot.,    conf., and orb.    Bnorm      Frequency 
      ----------------------------------------------------------------
         1    1.61438D-01  0.00D+00  1.61D-01  9.51D+00    0.00000D+00
         2    1.62375D-01  0.00D+00  1.62D-01  9.54D+00    1.82000D-02
         3    1.65232D-01  0.00D+00  1.65D-01  9.62D+00    3.64000D-02

 ** RSPCTL MICROITERATION NUMBER    4

       No.  Residual tot.,    conf., and orb.    Bnorm      Frequency 
      ----------------------------------------------------------------
         1    4.82680D-02  0.00D+00  4.83D-02  9.52D+00    0.00000D+00
         2    4.89875D-02  0.00D+00  4.90D-02  9.54D+00    1.82000D-02
         3    5.12373D-02  0.00D+00  5.12D-02  9.62D+00    3.64000D-02

 ** RSPCTL MICROITERATION NUMBER    5

       No.  Residual tot.,    conf., and orb.    Bnorm      Frequency 
      ----------------------------------------------------------------
         1    1.74584D-02  0.00D+00  1.75D-02  9.52D+00    0.00000D+00
         2    1.78904D-02  0.00D+00  1.79D-02  9.54D+00    1.82000D-02
         3    1.92488D-02  0.00D+00  1.92D-02  9.63D+00    3.64000D-02

 ** RSPCTL MICROITERATION NUMBER    6

       No.  Residual tot.,    conf., and orb.    Bnorm      Frequency 
      ----------------------------------------------------------------
         1    6.07236D-03  0.00D+00  6.07D-03  9.52D+00    0.00000D+00
         2    6.29701D-03  0.00D+00  6.30D-03  9.54D+00    1.82000D-02
         3    7.01289D-03  0.00D+00  7.01D-03  9.63D+00    3.64000D-02

 *** THE REQUESTED    3 SOLUTION VECTORS CONVERGED

 Convergence of RSP solution vectors, threshold = 1.00D-03
 ---------------------------------------------------------------
 (dimension of paired reduced space:   36)
 RSP solution vector no.    1; norm of residual   6.38D-04
 RSP solution vector no.    2; norm of residual   6.60D-04
 RSP solution vector no.    3; norm of residual   7.29D-04

 *** RSPCTL MICROITERATIONS CONVERGED

@ QRLRVE: SINGLET SOLUTION FOR SYMMETRY    1  ( A  )    LABEL   ZDIPLEN     FREQUENCY   0.000000D+00

@ QRLRVE:  << XDIPLEN  ; ZDIPLEN  >> (   0.00000):   -4.236144047906E-14

@ QRLRVE:  << YDIPLEN  ; ZDIPLEN  >> (   0.00000):   -4.387579214468E-14

@ QRLRVE:  << ZDIPLEN  ; ZDIPLEN  >> (   0.00000):     132.056668518    

@ QRLRVE: SINGLET SOLUTION FOR SYMMETRY    1  ( A  )    LABEL   ZDIPLEN     FREQUENCY   0.182000D-01

@ QRLRVE:  << XDIPLEN  ; ZDIPLEN  >> (   0.01820):   -4.314868131767E-14

@ QRLRVE:  << YDIPLEN  ; ZDIPLEN  >> (   0.01820):   -4.557671726386E-14

@ QRLRVE:  << ZDIPLEN  ; ZDIPLEN  >> (   0.01820):     132.207582453    

@ QRLRVE: SINGLET SOLUTION FOR SYMMETRY    1  ( A  )    LABEL   ZDIPLEN     FREQUENCY   0.364000D-01

@ QRLRVE:  << XDIPLEN  ; ZDIPLEN  >> (   0.03640):   -4.563207751472E-14

@ QRLRVE:  << YDIPLEN  ; ZDIPLEN  >> (   0.03640):   -5.132112800498E-14

@ QRLRVE:  << ZDIPLEN  ; ZDIPLEN  >> (   0.03640):     132.664129834    
 
 ======================================================================
 ---  L I N E A R   R E S P O N S E   F U N C T I O N S --- 
 ======================================================================

 The -<<A;B>>(omega_b) functions from vectors generated
 in a *QUADRA calculation of <<A;B,C>>(omega_b,omega_c)

 Note: the accuracy of off-diagonal elements will be linear
 in the convergence threshold THCLR =  1.00D-03


 Perturbation symmetry.     KSYMOP:           1
 Perturbation spin symmetry.TRPLET:           F
 Orbital variables.         KZWOPT:       39528
 Configuration variables.   KZCONF:           0
 Total number of variables. KZVAR :       39528

@ Singlet linear response function in a.u.

@ A operator, symmetry, frequency:   XDIPLEN    1 -0.000000
@ B operator, symmetry, frequency:   XDIPLEN    1  0.000000

@ Value of linear response -<<A;B>>(omega):     204.994944623384

@ Singlet linear response function in a.u.

@ A operator, symmetry, frequency:   YDIPLEN    1 -0.000000
@ B operator, symmetry, frequency:   XDIPLEN    1  0.000000

@ Value of linear response -<<A;B>>(omega):    -151.968058211366

@ Singlet linear response function in a.u.

@ A operator, symmetry, frequency:   ZDIPLEN    1 -0.000000
@ B operator, symmetry, frequency:   XDIPLEN    1  0.000000

@ Value of linear response -<<A;B>>(omega):      -0.000000000000

@ Singlet linear response function in a.u.

@ A operator, symmetry, frequency:   XDIPLEN    1 -0.018200
@ B operator, symmetry, frequency:   XDIPLEN    1  0.018200

@ Value of linear response -<<A;B>>(omega):     205.909768269021

@ Singlet linear response function in a.u.

@ A operator, symmetry, frequency:   YDIPLEN    1 -0.018200
@ B operator, symmetry, frequency:   XDIPLEN    1  0.018200

@ Value of linear response -<<A;B>>(omega):    -156.350987627140

@ Singlet linear response function in a.u.

@ A operator, symmetry, frequency:   ZDIPLEN    1 -0.018200
@ B operator, symmetry, frequency:   XDIPLEN    1  0.018200

@ Value of linear response -<<A;B>>(omega):      -0.000000000000

@ Singlet linear response function in a.u.

@ A operator, symmetry, frequency:   XDIPLEN    1 -0.000000
@ B operator, symmetry, frequency:   YDIPLEN    1  0.000000

@ Value of linear response -<<A;B>>(omega):    -151.940132247303

@ Singlet linear response function in a.u.

@ A operator, symmetry, frequency:   YDIPLEN    1 -0.000000
@ B operator, symmetry, frequency:   YDIPLEN    1  0.000000

@ Value of linear response -<<A;B>>(omega):    1204.351913159975

@ Singlet linear response function in a.u.

@ A operator, symmetry, frequency:   ZDIPLEN    1 -0.000000
@ B operator, symmetry, frequency:   YDIPLEN    1  0.000000

@ Value of linear response -<<A;B>>(omega):      -0.000000000000

@ Singlet linear response function in a.u.

@ A operator, symmetry, frequency:   XDIPLEN    1 -0.018200
@ B operator, symmetry, frequency:   YDIPLEN    1  0.018200

@ Value of linear response -<<A;B>>(omega):    -156.321460419355

@ Singlet linear response function in a.u.

@ A operator, symmetry, frequency:   YDIPLEN    1 -0.018200
@ B operator, symmetry, frequency:   YDIPLEN    1  0.018200

@ Value of linear response -<<A;B>>(omega):    1233.544007993679

@ Singlet linear response function in a.u.

@ A operator, symmetry, frequency:   ZDIPLEN    1 -0.018200
@ B operator, symmetry, frequency:   YDIPLEN    1  0.018200

@ Value of linear response -<<A;B>>(omega):      -0.000000000000

@ Singlet linear response function in a.u.

@ A operator, symmetry, frequency:   XDIPLEN    1 -0.000000
@ B operator, symmetry, frequency:   ZDIPLEN    1  0.000000

@ Value of linear response -<<A;B>>(omega):      -0.000000000000

@ Singlet linear response function in a.u.

@ A operator, symmetry, frequency:   YDIPLEN    1 -0.000000
@ B operator, symmetry, frequency:   ZDIPLEN    1  0.000000

@ Value of linear response -<<A;B>>(omega):      -0.000000000000

@ Singlet linear response function in a.u.

@ A operator, symmetry, frequency:   ZDIPLEN    1 -0.000000
@ B operator, symmetry, frequency:   ZDIPLEN    1  0.000000

@ Value of linear response -<<A;B>>(omega):     132.056668518132

@ Singlet linear response function in a.u.

@ A operator, symmetry, frequency:   XDIPLEN    1 -0.018200
@ B operator, symmetry, frequency:   ZDIPLEN    1  0.018200

@ Value of linear response -<<A;B>>(omega):      -0.000000000000

@ Singlet linear response function in a.u.

@ A operator, symmetry, frequency:   YDIPLEN    1 -0.018200
@ B operator, symmetry, frequency:   ZDIPLEN    1  0.018200

@ Value of linear response -<<A;B>>(omega):      -0.000000000000

@ Singlet linear response function in a.u.

@ A operator, symmetry, frequency:   ZDIPLEN    1 -0.018200
@ B operator, symmetry, frequency:   ZDIPLEN    1  0.018200

@ Value of linear response -<<A;B>>(omega):     132.207582452811


  Results from quadratic response calculation
 --------------------------------------------

@ B-freq = 0.000000  C-freq = 0.000000     beta(X;X,X) =   -819.18933104
@ B-freq = 0.000000  C-freq = 0.000000     beta(Y;X,X) =   3495.15197059
@ B-freq = 0.000000  C-freq = 0.000000     beta(Z;X,X) =      0.00000000
@ B-freq = 0.018200  C-freq = 0.000000     beta(X;X,X) =   -855.21074770
@ B-freq = 0.018200  C-freq = 0.000000     beta(Y;X,X) =   3669.29464630
@ B-freq = 0.018200  C-freq = 0.000000     beta(Z;X,X) =      0.00000000
@ B-freq = 0.000000  C-freq = 0.000000     beta(X;Y,X) = beta(Y,X,X)
@ B-freq = 0.000000  C-freq = 0.000000     beta(X;Y,X) =   3495.15216015
@ B-freq = 0.000000  C-freq = 0.000000     beta(Y;Y,X) = -13015.32938057
@ B-freq = 0.000000  C-freq = 0.000000     beta(Z;Y,X) =      0.00000000
@ B-freq = 0.018200  C-freq = 0.000000     beta(X;Y,X) =   3669.29484491
@ B-freq = 0.018200  C-freq = 0.000000     beta(Y;Y,X) = -13814.83660946
@ B-freq = 0.018200  C-freq = 0.000000     beta(Z;Y,X) =      0.00000000
@ B-freq = 0.000000  C-freq = 0.000000     beta(X;Z,X) = beta(Z,X,X)
@ B-freq = 0.000000  C-freq = 0.000000     beta(Y;Z,X) = beta(Z,Y,X)
@ B-freq = 0.000000  C-freq = 0.000000     beta(X;Z,X) =      0.00000000
@ B-freq = 0.000000  C-freq = 0.000000     beta(Y;Z,X) =      0.00000000
@ B-freq = 0.000000  C-freq = 0.000000     beta(Z;Z,X) =     14.74771166
@ B-freq = 0.018200  C-freq = 0.000000     beta(X;Z,X) =      0.00000000
@ B-freq = 0.018200  C-freq = 0.000000     beta(Y;Z,X) =      0.00000000
@ B-freq = 0.018200  C-freq = 0.000000     beta(Z;Z,X) =     14.87195302
@ B-freq = 0.000000  C-freq = 0.018200     beta(X;X,X) = beta(X,X,X)
@ B-freq = 0.000000  C-freq = 0.018200     beta(Y;X,X) = beta(Y,X,X)
@ B-freq = 0.000000  C-freq = 0.018200     beta(Z;X,X) = beta(Z,X,X)
@ B-freq = 0.018200  C-freq = 0.018200     beta(X;X,X) =   -935.96280042
@ B-freq = 0.018200  C-freq = 0.018200     beta(Y;X,X) =   4109.01380075
@ B-freq = 0.018200  C-freq = 0.018200     beta(Z;X,X) =      0.00000000
@ B-freq = 0.000000  C-freq = 0.018200     beta(X;Y,X) =   3630.04026943
@ B-freq = 0.000000  C-freq = 0.018200     beta(Y;Y,X) = -13627.82497394
@ B-freq = 0.000000  C-freq = 0.018200     beta(Z;Y,X) =      0.00000000
@ B-freq = 0.018200  C-freq = 0.018200     beta(X;Y,X) =   3974.40883957
@ B-freq = 0.018200  C-freq = 0.018200     beta(Y;Y,X) = -15434.97283652
@ B-freq = 0.018200  C-freq = 0.018200     beta(Z;Y,X) =      0.00000000
@ B-freq = 0.000000  C-freq = 0.018200     beta(X;Z,X) =      0.00000000
@ B-freq = 0.000000  C-freq = 0.018200     beta(Y;Z,X) =      0.00000000
@ B-freq = 0.000000  C-freq = 0.018200     beta(Z;Z,X) =     14.87472990
@ B-freq = 0.018200  C-freq = 0.018200     beta(X;Z,X) =      0.00000000
@ B-freq = 0.018200  C-freq = 0.018200     beta(Y;Z,X) =      0.00000000
@ B-freq = 0.018200  C-freq = 0.018200     beta(Z;Z,X) =     15.13222175
@ B-freq = 0.000000  C-freq = 0.000000     beta(X;X,Y) = beta(Y,X,X)
@ B-freq = 0.000000  C-freq = 0.000000     beta(Y;X,Y) = beta(Y,Y,X)
@ B-freq = 0.000000  C-freq = 0.000000     beta(Z;X,Y) = beta(Z,Y,X)
@ B-freq = 0.018200  C-freq = 0.000000     beta(X;X,Y) = beta(X,Y,X)
@ B-freq = 0.018200  C-freq = 0.000000     beta(Y;X,Y) = beta(Y,Y,X)
@ B-freq = 0.018200  C-freq = 0.000000     beta(Z;X,Y) = beta(Z,Y,X)
@ B-freq = 0.000000  C-freq = 0.000000     beta(X;Y,Y) = beta(Y,Y,X)
@ B-freq = 0.000000  C-freq = 0.000000     beta(X;Y,Y) = -13015.33072558
@ B-freq = 0.000000  C-freq = 0.000000     beta(Y;Y,Y) =  40123.22652659
@ B-freq = 0.000000  C-freq = 0.000000     beta(Z;Y,Y) =     -0.00000000
@ B-freq = 0.018200  C-freq = 0.000000     beta(X;Y,Y) = -13627.82638409
@ B-freq = 0.018200  C-freq = 0.000000     beta(Y;Y,Y) =  42643.03288821
@ B-freq = 0.018200  C-freq = 0.000000     beta(Z;Y,Y) =     -0.00000000
@ B-freq = 0.000000  C-freq = 0.000000     beta(X;Z,Y) = beta(Z,Y,X)
@ B-freq = 0.000000  C-freq = 0.000000     beta(Y;Z,Y) = beta(Z,Y,Y)
@ B-freq = 0.000000  C-freq = 0.000000     beta(X;Z,Y) =      0.00000000
@ B-freq = 0.000000  C-freq = 0.000000     beta(Y;Z,Y) =     -0.00000000
@ B-freq = 0.000000  C-freq = 0.000000     beta(Z;Z,Y) =    -40.59644582
@ B-freq = 0.018200  C-freq = 0.000000     beta(X;Z,Y) =      0.00000000
@ B-freq = 0.018200  C-freq = 0.000000     beta(Y;Z,Y) =     -0.00000000
@ B-freq = 0.018200  C-freq = 0.000000     beta(Z;Z,Y) =    -41.25347770
@ B-freq = 0.000000  C-freq = 0.018200     beta(X;X,Y) = beta(X,Y,X)
@ B-freq = 0.000000  C-freq = 0.018200     beta(Y;X,Y) = beta(Y,Y,X)
@ B-freq = 0.000000  C-freq = 0.018200     beta(Z;X,Y) = beta(Z,Y,X)
@ B-freq = 0.018200  C-freq = 0.018200     beta(X;X,Y) = beta(X,Y,X)
@ B-freq = 0.018200  C-freq = 0.018200     beta(Y;X,Y) = beta(Y,Y,X)
@ B-freq = 0.018200  C-freq = 0.018200     beta(Z;X,Y) = beta(Z,Y,X)
@ B-freq = 0.000000  C-freq = 0.018200     beta(X;Y,Y) = beta(X,Y,Y)
@ B-freq = 0.000000  C-freq = 0.018200     beta(Y;Y,Y) = beta(Y,Y,Y)
@ B-freq = 0.000000  C-freq = 0.018200     beta(Z;Y,Y) = beta(Z,Y,Y)
@ B-freq = 0.018200  C-freq = 0.018200     beta(X;Y,Y) = -14795.99272497
@ B-freq = 0.018200  C-freq = 0.018200     beta(Y;Y,Y) =  48421.08691119
@ B-freq = 0.018200  C-freq = 0.018200     beta(Z;Y,Y) =     -0.00000000
@ B-freq = 0.000000  C-freq = 0.018200     beta(X;Z,Y) =      0.00000000
@ B-freq = 0.000000  C-freq = 0.018200     beta(Y;Z,Y) =     -0.00000000
@ B-freq = 0.000000  C-freq = 0.018200     beta(Z;Z,Y) =    -41.29844148
@ B-freq = 0.018200  C-freq = 0.018200     beta(X;Z,Y) =      0.00000000
@ B-freq = 0.018200  C-freq = 0.018200     beta(Y;Z,Y) =     -0.00000000
@ B-freq = 0.018200  C-freq = 0.018200     beta(Z;Z,Y) =    -42.67460435
@ B-freq = 0.000000  C-freq = 0.000000     beta(X;X,Z) = beta(Z,X,X)
@ B-freq = 0.000000  C-freq = 0.000000     beta(Y;X,Z) = beta(Z,Y,X)
@ B-freq = 0.000000  C-freq = 0.000000     beta(Z;X,Z) = beta(Z,Z,X)
@ B-freq = 0.018200  C-freq = 0.000000     beta(X;X,Z) = beta(X,Z,X)
@ B-freq = 0.018200  C-freq = 0.000000     beta(Y;X,Z) = beta(Y,Z,X)
@ B-freq = 0.018200  C-freq = 0.000000     beta(Z;X,Z) = beta(Z,Z,X)
@ B-freq = 0.000000  C-freq = 0.000000     beta(X;Y,Z) = beta(Z,Y,X)
@ B-freq = 0.000000  C-freq = 0.000000     beta(Y;Y,Z) = beta(Z,Y,Y)
@ B-freq = 0.000000  C-freq = 0.000000     beta(Z;Y,Z) = beta(Z,Z,Y)
@ B-freq = 0.018200  C-freq = 0.000000     beta(X;Y,Z) = beta(X,Z,Y)
@ B-freq = 0.018200  C-freq = 0.000000     beta(Y;Y,Z) = beta(Y,Z,Y)
@ B-freq = 0.018200  C-freq = 0.000000     beta(Z;Y,Z) = beta(Z,Z,Y)
@ B-freq = 0.000000  C-freq = 0.000000     beta(X;Z,Z) = beta(Z,Z,X)
@ B-freq = 0.000000  C-freq = 0.000000     beta(Y;Z,Z) = beta(Z,Z,Y)
@ B-freq = 0.000000  C-freq = 0.000000     beta(X;Z,Z) =     14.74769710
@ B-freq = 0.000000  C-freq = 0.000000     beta(Y;Z,Z) =    -40.59638673
@ B-freq = 0.000000  C-freq = 0.000000     beta(Z;Z,Z) =      0.00000000
@ B-freq = 0.018200  C-freq = 0.000000     beta(X;Z,Z) =     14.87471494
@ B-freq = 0.018200  C-freq = 0.000000     beta(Y;Z,Z) =    -41.29837996
@ B-freq = 0.018200  C-freq = 0.000000     beta(Z;Z,Z) =      0.00000000
@ B-freq = 0.000000  C-freq = 0.018200     beta(X;X,Z) = beta(X,Z,X)
@ B-freq = 0.000000  C-freq = 0.018200     beta(Y;X,Z) = beta(Y,Z,X)
@ B-freq = 0.000000  C-freq = 0.018200     beta(Z;X,Z) = beta(Z,Z,X)
@ B-freq = 0.018200  C-freq = 0.018200     beta(X;X,Z) = beta(X,Z,X)
@ B-freq = 0.018200  C-freq = 0.018200     beta(Y;X,Z) = beta(Y,Z,X)
@ B-freq = 0.018200  C-freq = 0.018200     beta(Z;X,Z) = beta(Z,Z,X)
@ B-freq = 0.000000  C-freq = 0.018200     beta(X;Y,Z) = beta(X,Z,Y)
@ B-freq = 0.000000  C-freq = 0.018200     beta(Y;Y,Z) = beta(Y,Z,Y)
@ B-freq = 0.000000  C-freq = 0.018200     beta(Z;Y,Z) = beta(Z,Z,Y)
@ B-freq = 0.018200  C-freq = 0.018200     beta(X;Y,Z) = beta(X,Z,Y)
@ B-freq = 0.018200  C-freq = 0.018200     beta(Y;Y,Z) = beta(Y,Z,Y)
@ B-freq = 0.018200  C-freq = 0.018200     beta(Z;Y,Z) = beta(Z,Z,Y)
@ B-freq = 0.000000  C-freq = 0.018200     beta(X;Z,Z) = beta(X,Z,Z)
@ B-freq = 0.000000  C-freq = 0.018200     beta(Y;Z,Z) = beta(Y,Z,Z)
@ B-freq = 0.000000  C-freq = 0.018200     beta(Z;Z,Z) = beta(Z,Z,Z)
@ B-freq = 0.018200  C-freq = 0.018200     beta(X;Z,Z) =     15.15049908
@ B-freq = 0.018200  C-freq = 0.018200     beta(Y;Z,Z) =    -42.87594254
@ B-freq = 0.018200  C-freq = 0.018200     beta(Z;Z,Z) =      0.00000000

  Total CPU  time used in RESPONSE:  3 minutes 48 seconds
  Total wall time used in RESPONSE:  3 minutes 48 seconds


                   .-------------------------------------------.
                   | End of Dynamic Property Section (RESPONS) |
                   `-------------------------------------------'

  Total CPU  time used in DALTON:  5 minutes 12 seconds
  Total wall time used in DALTON:  5 minutes 13 seconds

 
     Date and time (Linux)  : Tue May 27 12:38:01 2025
     Host name              : xm059                                   
