

     ************************************************************************
     *************** Dalton - An Electronic Structure Program ***************
     ************************************************************************

    This is output from DALTON release Dalton2020.0 (2020)
         ( Web site: http://daltonprogram.org )

   ----------------------------------------------------------------------------

    NOTE:
     
    Dalton is an experimental code for the evaluation of molecular
    properties using (MC)SCF, DFT, CI, and CC wave functions.
    The authors accept no responsibility for the performance of
    the code or for the correctness of the results.
     
    The code (in whole or part) is provided under a licence and
    is not to be reproduced for further distribution without
    the written permission of the authors or their representatives.
     
    See the home page "http://daltonprogram.org" for further information.
     
    If results obtained with this code are published,
    the appropriate citations would be both of:
     
       K. Aidas, C. Angeli, K. L. Bak, V. Bakken, R. Bast,
       L. Boman, O. Christiansen, R. Cimiraglia, S. Coriani,
       P. Dahle, E. K. Dalskov, U. Ekstroem,
       T. Enevoldsen, J. J. Eriksen, P. Ettenhuber, B. Fernandez,
       L. Ferrighi, H. Fliegl, L. Frediani, K. Hald, A. Halkier,
       C. Haettig, H. Heiberg, T. Helgaker, A. C. Hennum,
       H. Hettema, E. Hjertenaes, S. Hoest, I.-M. Hoeyvik,
       M. F. Iozzi, B. Jansik, H. J. Aa. Jensen, D. Jonsson,
       P. Joergensen, J. Kauczor, S. Kirpekar,
       T. Kjaergaard, W. Klopper, S. Knecht, R. Kobayashi, H. Koch,
       J. Kongsted, A. Krapp, K. Kristensen, A. Ligabue,
       O. B. Lutnaes, J. I. Melo, K. V. Mikkelsen, R. H. Myhre,
       C. Neiss, C. B. Nielsen, P. Norman, J. Olsen,
       J. M. H. Olsen, A. Osted, M. J. Packer, F. Pawlowski,
       T. B. Pedersen, P. F. Provasi, S. Reine, Z. Rinkevicius,
       T. A. Ruden, K. Ruud, V. Rybkin, P. Salek, C. C. M. Samson,
       A. Sanchez de Meras, T. Saue, S. P. A. Sauer,
       B. Schimmelpfennig, K. Sneskov, A. H. Steindal,
       K. O. Sylvester-Hvid, P. R. Taylor, A. M. Teale,
       E. I. Tellgren, D. P. Tew, A. J. Thorvaldsen, L. Thoegersen,
       O. Vahtras, M. A. Watson, D. J. D. Wilson, M. Ziolkowski
       and H. Agren,
       "The Dalton quantum chemistry program system",
       WIREs Comput. Mol. Sci. 2014, 4:269–284 (doi: 10.1002/wcms.1172)
     
    and
     
       Dalton, a molecular electronic structure program,
       Release Dalton2020.0 (2020), see http://daltonprogram.org
   ----------------------------------------------------------------------------

    Authors in alphabetical order (Major contribution(s) in parenthesis):

  Kestutis Aidas,           Vilnius University,           Lithuania   (QM/MM)
  Celestino Angeli,         University of Ferrara,        Italy       (NEVPT2)
  Keld L. Bak,              UNI-C,                        Denmark     (AOSOPPA, non-adiabatic coupling, magnetic properties)
  Vebjoern Bakken,          University of Oslo,           Norway      (DALTON; geometry optimizer, symmetry detection)
  Radovan Bast,             UiT The Arctic U. of Norway,  Norway      (DALTON installation and execution frameworks)
  Pablo Baudin,             University of Valencia,       Spain       (Cholesky excitation energies)
  Linus Boman,              NTNU,                         Norway      (Cholesky decomposition and subsystems)
  Bruno N. Cabral Tenorio,  Technical Univ. of Denmark,   Denmark     (Lanczos-based CC methods)
  Ove Christiansen,         Aarhus University,            Denmark     (CC module)
  Renzo Cimiraglia,         University of Ferrara,        Italy       (NEVPT2)
  Sonia Coriani,            Technical Univ. of Denmark,   Denmark     (CC and RESPONS modules)
  Janusz Cukras,            University of Warsaw,         Poland      (MChD in RESPONS)
  Paal Dahle,               University of Oslo,           Norway      (Parallelization)
  Erik K. Dalskov,          UNI-C,                        Denmark     (SOPPA)
  Thomas Enevoldsen,        Univ. of Southern Denmark,    Denmark     (SOPPA)
  Janus J. Eriksen,         Aarhus University,            Denmark     (Polarizable embedding, TDA)
  Rasmus Faber,             Technical Univ. of Denmark,   Denmark     (Vib.avg. NMR w. SOPPA, parallel AO-SOPPA, CVS-CC and EOMCC)
  Tobias Fahleson,          KTH Stockholm,                Sweden      (Damped cubic response)
  Berta Fernandez,          U. of Santiago de Compostela, Spain       (Doublet spin, ESR in RESPONS)
  Lara Ferrighi,            Aarhus University,            Denmark     (PCM Cubic response)
  Heike Fliegl,             University of Oslo,           Norway      (CCSD(R12))
  Luca Frediani,            UiT The Arctic U. of Norway,  Norway      (PCM)
  Emmanuel Fromager,        Univ. Strasbourg,             France      (MC-srDFT)
  Bin Gao,                  UiT The Arctic U. of Norway,  Norway      (Gen1Int library)
  Andre S. P. Gomes,        CNRS/Universite de Lille,     France      (Frozen density embedding)
  Christof Haettig,         Ruhr-University Bochum,       Germany     (CC module)
  Kasper Hald,              Aarhus University,            Denmark     (CC module)
  Asger Halkier,            Aarhus University,            Denmark     (CC module)
  Frederik Beyer Hansen,    University of Copenhagen,     Denmark     (Parallel AO-SOPPA)
  Erik D. Hedegaard,        Univ. of Southern Denmark,    Denmark     (Polarizable embedding, QM/MM, and MC-srDFT)
  Hanne Heiberg,            University of Oslo,           Norway      (Geometry analysis, selected one-electron integrals)
  Trygve Helgaker,          University of Oslo,           Norway      (DALTON; ABACUS, ERI, DFT modules, London, and much more)
  Alf Christian Hennum,     University of Oslo,           Norway      (Parity violation)
  Hinne Hettema,            University of Auckland,       New Zealand (Quadratic response in RESPONS; SIRIUS supersymmetry)
  Eirik Hjertenaes,         NTNU,                         Norway      (Cholesky decomposition)
  Pi A. B. Haase,           University of Copenhagen,     Denmark     (Triplet AO-SOPPA)
  Maria Francesca Iozzi,    University of Oslo,           Norway      (RPA)
  Christoph Jacob           TU Braunschweig               Germany     (Frozen density embedding)
  Brano Jansik              Technical Univ. of Ostrava    Czech Rep.  (DFT cubic response)
  Hans Joergen Aa. Jensen,  Univ. of Southern Denmark,    Denmark     (DALTON; SIRIUS, RESPONS, ABACUS, MC-srDFT, and much more)
  Dan Jonsson,              UiT The Arctic U. of Norway,  Norway      (Cubic response in RESPONS module)
  Poul Joergensen,          Aarhus University,            Denmark     (RESPONS, ABACUS, and CC modules)
  Maciej Kaminski,          University of Warsaw,         Poland      (CPPh in RESPONS)
  Joanna Kauczor,           Linkoeping University,        Sweden      (Complex polarization propagator (CPP) module)
  Sheela Kirpekar,          Univ. of Southern Denmark,    Denmark     (Mass-velocity & Darwin integrals)
  Erik Kjellgren,           Univ. of Southern Denmark,    Denmark     (MC-srDFT)
  Wim Klopper,              KIT Karlsruhe,                Germany     (R12 code in CC, SIRIUS, and ABACUS modules)
  Stefan Knecht,            ETH Zurich,                   Switzerland (Parallel CI and MCSCF, MC-srDFT)
  Rika Kobayashi,           Australian National Univ.,    Australia   (DIIS in CC, London in MCSCF)
  Henrik Koch,              NTNU,                         Norway      (CC module, Cholesky decomposition)
  Jacob Kongsted,           Univ. of Southern Denmark,    Denmark     (Polarizable embedding, polarizable density embedding, QM/MM)
  Andrea Ligabue,           University of Modena,         Italy       (CTOCD, AOSOPPA)
  Nanna H. List             Univ. of Southern Denmark,    Denmark     (Polarizable embedding)
  Ola B. Lutnaes,           University of Oslo,           Norway      (DFT Hessian)
  Juan I. Melo,             University of Buenos Aires,   Argentina   (LRESC, Relativistic Effects on NMR Shieldings)
  Kurt V. Mikkelsen,        University of Copenhagen,     Denmark     (MC-SCRF and QM/MM)
  Rolf H. Myhre,            NTNU,                         Norway      (Subsystems and CC3)
  Christian Neiss,          Univ. Erlangen-Nuernberg,     Germany     (CCSD(R12))
  Christian B. Nielsen,     University of Copenhagen,     Denmark     (QM/MM)
  Patrick Norman,           KTH Stockholm,                Sweden      (Cubic response and complex frequency response in RESPONS)
  Jeppe Olsen,              Aarhus University,            Denmark     (SIRIUS CI/density modules)
  Jogvan Magnus H. Olsen,   Aarhus University,            Denmark     (Polarizable embedding and polarizable density embedding)
  Anders Osted,             Copenhagen University,        Denmark     (QM/MM)
  Martin J. Packer,         University of Sheffield,      UK          (SOPPA)
  Filip Pawlowski,          Kazimierz Wielki University,  Poland      (CC3)
  Morten N. Pedersen,       Univ. of Southern Denmark,    Denmark     (Polarizable embedding)
  Thomas B. Pedersen,       University of Oslo,           Norway      (Cholesky decomposition)
  Patricio F. Provasi,      University of Northeastern,   Argentina   (Analysis of coupling constants in localized orbitals)
  Peter Reinholdt,          Univ. of Southern Denmark,    Denmark     (Polarizable embedding and polarizable density embedding)
  Zilvinas Rinkevicius,     KTH Stockholm,                Sweden      (open-shell DFT, ESR)
  Elias Rudberg,            KTH Stockholm,                Sweden      (DFT grid and basis info)
  Torgeir A. Ruden,         University of Oslo,           Norway      (Numerical derivatives in ABACUS)
  Kenneth Ruud,             UiT The Arctic U. of Norway,  Norway      (DALTON; ABACUS magnetic properties and much more)
  Pawel Salek,              KTH Stockholm,                Sweden      (DALTON; DFT code)
  Claire C. M. Samson       University of Karlsruhe       Germany     (Boys localization, r12 integrals in ERI)
  Alfredo Sanchez de Meras, University of Valencia,       Spain       (CC module, Cholesky decomposition)
  Trond Saue,               Paul Sabatier University,     France      (direct Fock matrix construction)
  Stephan P. A. Sauer,      University of Copenhagen,     Denmark     (SOPPA(CCSD), SOPPA prop., AOSOPPA, vibrational g-factors)
  Bernd Schimmelpfennig,    Forschungszentrum Karlsruhe,  Germany     (AMFI module)
  Anna K. Schnack-Petersen, University of Copenhagen,     Denmark     (RPA(D) and HRPA(D) properties in AOSOPPA)
  Kristian Sneskov,         Aarhus University,            Denmark     (Polarizable embedding, QM/MM)
  Arnfinn H. Steindal,      UiT The Arctic U. of Norway,  Norway      (parallel QM/MM, polarizable embedding)
  Casper Steinmann,         Aalborg University,           Denmark     (QFIT, polarizable embedding)
  K. O. Sylvester-Hvid,     University of Copenhagen,     Denmark     (MC-SCRF)
  Peter R. Taylor,          VLSCI/Univ. of Melbourne,     Australia   (Symmetry handling ABACUS, integral transformation)
  Andrew M. Teale,          University of Nottingham,     England     (DFT-AC, DFT-D)
  David P. Tew,             University of Bristol,        England     (CCSD(R12))
  Julien Toulouse,          Sorbonne Univ.,               France      (MC-srDFT)
  Olav Vahtras,             KTH Stockholm,                Sweden      (Triplet response, spin-orbit, ESR, TDDFT, open-shell DFT)
  Lucas Visscher,           Vrije Universiteit Amsterdam, Netherlands (Frozen density embedding)
  David J. Wilson,          La Trobe University,          Australia   (DFT Hessian and DFT magnetizabilities)
  Hans Agren,               KTH Stockholm,                Sweden      (SIRIUS module, RESPONS, MC-SCRF solvation)
 --------------------------------------------------------------------------------

     Date and time (Linux)  : Tue Apr 29 21:44:28 2025
     Host name              : xm028                                   

 * Work memory size             :    64000000 =  488.28 megabytes.

 * Directories for basis set searches:
   1) /gpfs/projects/rjh/adrian/summer2025/beta_projects/raw_data/NLO/dalton/hf/n11/excited-state
   2) /gpfs/projects/rjh/adrian/dalton/build/basis


Compilation information
-----------------------

 Who compiled             | ahurtado
 Host                     | milan2
 System                   | Linux-5.14.0-427.42.1.el9_4.x86_64
 CMake generator          | Unix Makefiles
 Processor                | x86_64
 64-bit integers          | OFF
 MPI                      | ON
 Fortran compiler         | /gpfs/software/openmpi/milan/gcc13.2/4.1.6/bin/mpi
                          | f90
 Fortran compiler version | GNU Fortran (GCC) 13.2.0
 C compiler               | /gpfs/software/openmpi/milan/gcc13.2/4.1.6/bin/mpi
                          | cc
 C compiler version       | gcc (GCC) 13.2.0
 C++ compiler             | /gpfs/software/openmpi/milan/gcc13.2/4.1.6/bin/mpi
                          | cxx
 C++ compiler version     | unknown
 BLAS                     | /gpfs/software/intel/oneAPI/2024_2/mkl/2024.2/lib/
                          | intel64/libmkl_gf_lp64.so;/gpfs/software/intel/one
                          | API/2024_2/mkl/2024.2/lib/intel64/libmkl_sequentia
                          | l.so;/gpfs/software/intel/oneAPI/2024_2/mkl/2024.2
                          | /lib/intel64/libmkl_core.so;/usr/lib64/libpthread.
                          | a;/usr/lib64/libm.so
 LAPACK                   | /gpfs/software/intel/oneAPI/2024_2/mkl/2024.2/lib/
                          | intel64/libmkl_lapack95_lp64.a;/gpfs/software/inte
                          | l/oneAPI/2024_2/mkl/2024.2/lib/intel64/libmkl_gf_l
                          | p64.so
 Static linking           | OFF
 Last Git revision        | 66052b3af5ea7225e31178bf9a8b031913c72190
 Git branch               | (HEAD detached at Dalton2020.0)
 Configuration time       | 2025-04-10 16:02:31.569498

 * MPI parallel run using 192 processes.


   Content of the .dal input file
 ----------------------------------

**DALTON INPUT
.RUN PROPERTIES
.DIRECT
**WAVE FUNCTIONS
.HF
**PROPERTIES
.EXCITA
*EXCITA
.NEXCIT
   4  4  4  4  4  4  4  4  4  4
**END OF DALTON INPUT


   Content of the .mol file
 ----------------------------

BASIS
aug-cc-pVTZ
blah
blah
Atomtype=4 Angstrom Charge=0 Nosymmetry
Charge=6 Atoms=22
C_a -1.8122620012835433 -0.9657169975135246 0.0
C_b -0.47990300170099354 -0.6199950004480934 0.0
C_c 0.0 0.7347809988410869 0.0
C_d 1.33440499976634 1.0741329987742174 0.0
C_e 1.822035999616516 2.426000999954059 0.0
C_f 3.1583140009529345 2.7579619976610776 0.0
C_g 3.6555709988538028 4.106602001980516 0.0
C_h 4.993888999504442 4.428659998534144 0.0
C_i 5.504787000539432 5.773048000464584 0.0
C_j 6.845650999753135 6.080100002436257 0.0
C_k 7.378550998559059 7.417604001534356 0.0
C_l 8.72333499967156 7.6973089984010015 0.0
C_m 9.297041001506793 9.019440997499384 0.0
C_n 10.650860999830723 9.227377001932195 0.0
C_o -7.171002997440654 -6.1446729997378835 0.0
C_p -5.8529999987804215 -5.769760000200263 0.0
C_q -5.403531999922006 -4.399889998867221 0.0
C_r -4.078087002227869 -4.038480998483878 0.0
C_s -3.6145510018522695 -2.6759249988010225 0.0
C_t -2.2848440003198527 -2.323654999973166 0.0
C_u -8.882541000978819 -7.916753998612093 0.0
C_v -7.585979998306329 -7.530289002356054 0.0
Charge=7 Atoms=2
N_a 11.282005002092449 10.441887998568792 0.0
N_b -9.247999000789601 -9.328862998985626 0.0
Charge=8 Atoms=2
O_a -10.462299998741914 -9.564712000592682 0.0
O_b -8.352355998769958 -10.176287997998127 0.0
Charge=1 Atoms=24
H_a -2.5644380022665603 -0.16330899797727702 0.0
H_b 0.27023400011273024 -1.4248459994951204 0.0
H_c -0.7479299994635872 1.5412280016472666 0.0
H_d 2.080228000789063 0.26520700182338897 0.0
H_e 1.0786390009325657 3.23667100094632 0.0
H_f 3.899079999338471 1.9442640023351856 0.0
H_g 2.9178589985700296 4.922449001834255 0.0
H_h 5.727755998175488 3.608514000063327 0.0
H_i 4.7752170001956085 6.596111998494022 0.0
H_j 7.568522997762397 5.24983899854614 0.0
H_k 6.662887997566072 8.252460999459268 0.0
H_l 9.424485998300522 6.848155997665916 0.0
H_m 8.61886099820631 9.883707997885121 0.0
H_n 11.32836600055659 8.364257998587286 0.0
H_o 10.750808001385902 11.301844998743242 0.0
H_p 12.288097998525666 10.505195997748313 0.0
H_q -7.948397001899416 -5.3685600010118515 0.0
H_r -5.083876002228872 -6.5560159978200385 0.0
H_s -6.168483000242109 -3.610195000266058 0.0
H_t -3.317323000168205 -4.833130000669942 0.0
H_u -1.5302499981574886 -3.124286001268895 0.0
H_v -4.371808998512132 -1.878615002552244 0.0
H_w -9.751719998862473 -7.256207000195811 0.0
H_x -6.820033001807389 -8.315199000698087 0.0


       *******************************************************************
       *********** Output from DALTON general input processing ***********
       *******************************************************************

 --------------------------------------------------------------------------------
   Overall default print level:    0
   Print level for DALTON.STAT:    1

    Parallel calculation using MPI
    AO-direct calculation (in sections where implemented)
    HERMIT 1- and 2-electron integral sections will be executed
    "Old" integral transformation used (limited to max 255 basis functions)
    Wave function sections will be executed (SIRIUS module)
    Static molecular property section will be executed (ABACUS module)
 --------------------------------------------------------------------------------


   ****************************************************************************
   *************** Output of molecule and basis set information ***************
   ****************************************************************************


    The two title cards from your ".mol" input:
    ------------------------------------------------------------------------
 1: blah                                                                    
 2: blah                                                                    
    ------------------------------------------------------------------------

  Coordinates are entered in Angstrom and converted to atomic units.
          - Conversion factor : 1 bohr = 0.52917721 A

  Atomic type no.    1
  --------------------
  Nuclear charge:   6.00000
  Number of symmetry independent centers:   22
  Number of basis sets to read;    2
  Basis set file used for this atomic type with Z =   6 :
     "/gpfs/projects/rjh/adrian/dalton/build/basis/aug-cc-pVTZ"

  Atomic type no.    2
  --------------------
  Nuclear charge:   7.00000
  Number of symmetry independent centers:    2
  Number of basis sets to read;    2
  Basis set file used for this atomic type with Z =   7 :
     "/gpfs/projects/rjh/adrian/dalton/build/basis/aug-cc-pVTZ"

  Atomic type no.    3
  --------------------
  Nuclear charge:   8.00000
  Number of symmetry independent centers:    2
  Number of basis sets to read;    2
  Basis set file used for this atomic type with Z =   8 :
     "/gpfs/projects/rjh/adrian/dalton/build/basis/aug-cc-pVTZ"

  Atomic type no.    4
  --------------------
  Nuclear charge:   1.00000
  Number of symmetry independent centers:   24
  Number of basis sets to read;    2
  Basis set file used for this atomic type with Z =   1 :
     "/gpfs/projects/rjh/adrian/dalton/build/basis/aug-cc-pVTZ"


                         SYMGRP: Point group information
                         -------------------------------

@    Point group: C1 


                                 Isotopic Masses
                                 ---------------

                           C_a        12.000000
                           C_b        12.000000
                           C_c        12.000000
                           C_d        12.000000
                           C_e        12.000000
                           C_f        12.000000
                           C_g        12.000000
                           C_h        12.000000
                           C_i        12.000000
                           C_j        12.000000
                           C_k        12.000000
                           C_l        12.000000
                           C_m        12.000000
                           C_n        12.000000
                           C_o        12.000000
                           C_p        12.000000
                           C_q        12.000000
                           C_r        12.000000
                           C_s        12.000000
                           C_t        12.000000
                           C_u        12.000000
                           C_v        12.000000
                           N_a        14.003074
                           N_b        14.003074
                           O_a        15.994915
                           O_b        15.994915
                           H_a         1.007825
                           H_b         1.007825
                           H_c         1.007825
                           H_d         1.007825
                           H_e         1.007825
                           H_f         1.007825
                           H_g         1.007825
                           H_h         1.007825
                           H_i         1.007825
                           H_j         1.007825
                           H_k         1.007825
                           H_l         1.007825
                           H_m         1.007825
                           H_n         1.007825
                           H_o         1.007825
                           H_p         1.007825
                           H_q         1.007825
                           H_r         1.007825
                           H_s         1.007825
                           H_t         1.007825
                           H_u         1.007825
                           H_v         1.007825
                           H_w         1.007825
                           H_x         1.007825

                       Total mass:   348.183778 amu
                       Natural abundance:  77.170 %

 Center-of-mass coordinates (a.u.):   -0.209926   -0.214777    0.000000
 Center-of-mass coordinates (Angs):   -0.111088   -0.113655    0.000000


  Atoms and basis sets
  --------------------

  Number of atom types :    4
  Total number of atoms:   50

  Basis set used is "aug-cc-pVTZ" from the basis set library.

  label    atoms   charge   prim   cont     basis
  ----------------------------------------------------------------------
  C_         22    6.0000    58    46      [11s6p3d2f|5s4p3d2f]                               
  N_          2    7.0000    58    46      [11s6p3d2f|5s4p3d2f]                               
  O_          2    8.0000    58    46      [11s6p3d2f|5s4p3d2f]                               
  H_         24    1.0000    25    23      [6s3p2d|4s3p2d]                                    
  ----------------------------------------------------------------------
  total:     50  186.0000  2108  1748
  ----------------------------------------------------------------------
  Spherical harmonic basis used.

  Threshold for neglecting AO integrals:  1.00D-12

  Max    interatomic separation is   30.3378 Angstrom (   57.3301 Bohr)
  between atoms   42 and   25, "H_p   " and "O_a   ".

  Min HX interatomic separation is    1.0081 Angstrom (    1.9050 Bohr)

  Min YX interatomic separation is    1.2330 Angstrom (    2.3300 Bohr)


  Bond distances (Angstrom):
  --------------------------

                  atom 1     atom 2       distance
                  ------     ------       --------
  bond distance:  C_b        C_a          1.376483
  bond distance:  C_c        C_b          1.437263
  bond distance:  C_d        C_c          1.376879
  bond distance:  C_e        C_d          1.437126
  bond distance:  C_f        C_e          1.376894
  bond distance:  C_g        C_f          1.437392
  bond distance:  C_h        C_g          1.376523
  bond distance:  C_i        C_h          1.438192
  bond distance:  C_j        C_i          1.375572
  bond distance:  C_k        C_j          1.439757
  bond distance:  C_l        C_k          1.373564
  bond distance:  C_m        C_l          1.441240
  bond distance:  C_n        C_m          1.369696
  bond distance:  C_p        C_o          1.370289
  bond distance:  C_q        C_p          1.441723
  bond distance:  C_r        C_q          1.373834
  bond distance:  C_s        C_r          1.439244
  bond distance:  C_t        C_a          1.437821
  bond distance:  C_t        C_s          1.375578
  bond distance:  C_v        C_o          1.446422
  bond distance:  C_v        C_u          1.352932
  bond distance:  N_a        C_n          1.368715
  bond distance:  N_b        C_u          1.458633
  bond distance:  O_a        N_b          1.236993
  bond distance:  O_b        N_b          1.233007
  bond distance:  H_a        C_a          1.099831
  bond distance:  H_b        C_b          1.100223
  bond distance:  H_c        C_c          1.099889
  bond distance:  H_d        C_d          1.100279
  bond distance:  H_e        C_e          1.099920
  bond distance:  H_f        C_f          1.100381
  bond distance:  H_g        C_g          1.099921
  bond distance:  H_h        C_h          1.100545
  bond distance:  H_i        C_i          1.099867
  bond distance:  H_j        C_j          1.100853
  bond distance:  H_k        C_k          1.099618
  bond distance:  H_l        C_l          1.101215
  bond distance:  H_m        C_m          1.098583
  bond distance:  H_n        C_n          1.097264
  bond distance:  H_o        N_a          1.010790
  bond distance:  H_p        N_a          1.008083
  bond distance:  H_q        C_o          1.098496
  bond distance:  H_r        C_p          1.099886
  bond distance:  H_s        C_q          1.099440
  bond distance:  H_t        C_r          1.100104
  bond distance:  H_u        C_t          1.100192
  bond distance:  H_v        C_s          1.099610
  bond distance:  H_w        C_u          1.091693
  bond distance:  H_x        C_v          1.096703


  Bond angles (degrees):
  ----------------------

                  atom 1     atom 2     atom 3         angle
                  ------     ------     ------         -----
  bond angle:     C_b        C_a        C_t          123.735
  bond angle:     C_b        C_a        H_a          118.603
  bond angle:     C_t        C_a        H_a          117.662
  bond angle:     C_a        C_b        C_c          124.052
  bond angle:     C_a        C_b        H_b          118.438
  bond angle:     C_c        C_b        H_b          117.509
  bond angle:     C_b        C_c        C_d          123.774
  bond angle:     C_b        C_c        H_c          117.650
  bond angle:     C_d        C_c        H_c          118.576
  bond angle:     C_c        C_d        C_e          124.103
  bond angle:     C_c        C_d        H_d          118.407
  bond angle:     C_e        C_d        H_d          117.489
  bond angle:     C_d        C_e        C_f          123.786
  bond angle:     C_d        C_e        H_e          117.644
  bond angle:     C_f        C_e        H_e          118.570
  bond angle:     C_e        C_f        C_g          124.191
  bond angle:     C_e        C_f        H_f          118.363
  bond angle:     C_g        C_f        H_f          117.447
  bond angle:     C_f        C_g        C_h          123.770
  bond angle:     C_f        C_g        H_g          117.640
  bond angle:     C_h        C_g        H_g          118.590
  bond angle:     C_g        C_h        C_i          124.339
  bond angle:     C_g        C_h        H_h          118.292
  bond angle:     C_i        C_h        H_h          117.370
  bond angle:     C_h        C_i        C_j          123.706
  bond angle:     C_h        C_i        H_i          117.638
  bond angle:     C_j        C_i        H_i          118.656
  bond angle:     C_i        C_j        C_k          124.622
  bond angle:     C_i        C_j        H_j          118.147
  bond angle:     C_k        C_j        H_j          117.232
  bond angle:     C_j        C_k        C_l          123.473
  bond angle:     C_j        C_k        H_k          117.672
  bond angle:     C_l        C_k        H_k          118.855
  bond angle:     C_k        C_l        C_m          125.207
  bond angle:     C_k        C_l        H_l          117.797
  bond angle:     C_m        C_l        H_l          116.996
  bond angle:     C_l        C_m        C_n          122.189
  bond angle:     C_l        C_m        H_m          118.422
  bond angle:     C_n        C_m        H_m          119.389
  bond angle:     C_m        C_n        N_a          126.191
  bond angle:     C_m        C_n        H_n          119.398
  bond angle:     N_a        C_n        H_n          114.410
  bond angle:     C_p        C_o        C_v          122.551
  bond angle:     C_p        C_o        H_q          119.169
  bond angle:     C_v        C_o        H_q          118.280
  bond angle:     C_o        C_p        C_q          124.044
  bond angle:     C_o        C_p        H_r          118.490
  bond angle:     C_q        C_p        H_r          117.466
  bond angle:     C_p        C_q        C_r          123.417
  bond angle:     C_p        C_q        H_s          117.747
  bond angle:     C_r        C_q        H_s          118.836
  bond angle:     C_q        C_r        C_s          124.040
  bond angle:     C_q        C_r        H_t          118.500
  bond angle:     C_s        C_r        H_t          117.460
  bond angle:     C_r        C_s        C_t          123.626
  bond angle:     C_r        C_s        H_v          117.688
  bond angle:     C_t        C_s        H_v          118.686
  bond angle:     C_a        C_t        C_s          124.027
  bond angle:     C_a        C_t        H_u          117.507
  bond angle:     C_s        C_t        H_u          118.466
  bond angle:     C_v        C_u        N_b          121.108
  bond angle:     C_v        C_u        H_w          126.169
  bond angle:     N_b        C_u        H_w          112.724
  bond angle:     C_o        C_v        C_u          123.270
  bond angle:     C_o        C_v        H_x          119.028
  bond angle:     C_u        C_v        H_x          117.702
  bond angle:     C_n        N_a        H_o          120.837
  bond angle:     C_n        N_a        H_p          121.060
  bond angle:     H_o        N_a        H_p          118.103
  bond angle:     C_u        N_b        O_a          115.501
  bond angle:     C_u        N_b        O_b          118.905
  bond angle:     O_a        N_b        O_b          125.593




 Principal moments of inertia (u*A**2) and principal axes
 --------------------------------------------------------

   IA     132.140063          0.723824    0.689984    0.000000
   IB   30250.886736         -0.689984    0.723824    0.000000
   IC   30383.026799          0.000000    0.000000    1.000000


 Rotational constants
 --------------------

@    The molecule is planar.

               A                   B                   C

           3824.5706             16.7063             16.6336 MHz
            0.127574            0.000557            0.000555 cm-1


@  Nuclear repulsion energy : 1581.530184833914 Hartree


                     .---------------------------------------.
                     | Starting in Integral Section (HERMIT) |
                     `---------------------------------------'



 ***************************************************************************************
 ****************** Output from **INTEGRALS input processing (HERMIT) ******************
 ***************************************************************************************


 - Using defaults, no **INTEGRALS input found

 Default print level:        1

 Calculation of one-electron Hamiltonian integrals.

 Center of mass  (bohr):     -0.209925642482     -0.214776861006      0.000000000000
 Operator center (bohr):      0.000000000000      0.000000000000      0.000000000000
 Gauge origin    (bohr):      0.000000000000      0.000000000000      0.000000000000
 Dipole origin   (bohr):      0.000000000000      0.000000000000      0.000000000000


     ************************************************************************
     ************************** Output from HERINT **************************
     ************************************************************************



                      Nuclear contribution to dipole moments
                      --------------------------------------

                 au               Debye          C m (/(10**-30)

      x      0.00001132         0.00002877         0.00009597
      y     -0.00001130        -0.00002872        -0.00009581
      z      0.00000000         0.00000000         0.00000000


  Time used in ONEDRV     is       5.19 seconds
  Time used in HUCKEL     is       1.15 seconds
  Time used in OVERLAP    is       0.62 seconds
  Time used in POPOVLP    is       1.20 seconds
  Time used in R2         is       0.74 seconds
  Time used in R4         is       0.86 seconds
  Time used in DIPLEN     is       1.05 seconds
  Time used in QUADRUP    is       2.06 seconds
  Time used in KINENE     is       0.99 seconds
  Time used in GABGEN     is       5.95 seconds
  Total CPU  time used in HERMIT:  19.82 seconds
  Total wall time used in HERMIT:  19.98 seconds


                        .----------------------------------.
                        | End of Integral Section (HERMIT) |
                        `----------------------------------'



                   .--------------------------------------------.
                   | Starting in Wave Function Section (SIRIUS) |
                   `--------------------------------------------'



@ Primary orbitals are deleted during canonical orthonormalization
@   because of detected numerical linear dependence or too large coefficients.
@ Eigenvalue threshold for num. lin. dep. =  1.00D-06

@  10 MO components are deleted in symmetry    1
 Overlap eigenvalues of the deleted orbitals:
  9.98D-07  9.77D-07  9.18D-07  7.90D-07  6.07D-07
  4.95D-07  4.87D-07  3.72D-07  1.75D-07  5.05D-08

 Max MO coeff. of last deleted MO & limit:  2.65D+02  1.00D+03

WARNING: Orbitals have been deleted because of numerical
   linear dependence although not requested in input.

 *** Output from Huckel module :

     Using EWMO model:          T
     Using EHT  model:          F
     Number of Huckel orbitals each symmetry:  154

 EWMO - Energy Weighted Maximum Overlap - is a Huckel type method,
        which normally is better than Extended Huckel Theory.
 Reference: Linderberg and Ohrn, Propagators in Quantum Chemistry (Wiley, 1973)

 Huckel EWMO eigenvalues for symmetry :  1
          -20.684752     -20.683496     -15.677078     -15.674963     -11.359374
          -11.359347     -11.359080     -11.358962     -11.358805     -11.358177
          -11.357067     -11.355666     -11.354101     -11.352519     -11.351100
          -11.348548     -11.347673     -11.346826     -11.346154     -11.345689
          -11.345479     -11.345449     -11.345343     -11.345315     -11.345201
          -11.345199      -1.964023      -1.792553      -1.788416      -1.777016
           -1.753857      -1.715146      -1.659142      -1.586856      -1.502143
           -1.445579      -1.402688      -1.305298      -1.210238      -1.204574
           -1.181381      -1.138478      -1.110079      -1.082419      -1.029091
           -1.004500      -0.962900      -0.921724      -0.897947      -0.852013
           -0.851456      -0.837210      -0.815275      -0.781973      -0.760999
           -0.749335      -0.739750      -0.729381      -0.693878      -0.690068
           -0.669188      -0.654194      -0.645832      -0.629887      -0.604027
           -0.599317      -0.596036      -0.585320      -0.556702      -0.554676
           -0.551379      -0.536644      -0.521781      -0.512788      -0.505246
           -0.501020      -0.494401      -0.493830      -0.489009      -0.487602
           -0.480786      -0.480021      -0.475253      -0.474908      -0.469443
           -0.461643      -0.435957      -0.421846      -0.404684      -0.386742
           -0.379984      -0.364149      -0.356816      -0.335710      -0.302570
           -0.279750      -0.259927      -0.243265      -0.229601      -0.229166
           -0.218679      -0.210184      -0.203785      -0.200939      -0.199174
           -0.196080      -0.194301      -0.190582      -0.166681      -0.142726
           -0.138983      -0.134902      -0.132334      -0.131510      -0.131082
           -0.130349      -0.129767      -0.129600      -0.129276      -0.129072
           -0.128577      -0.127914      -0.127154      -0.126973      -0.126563
           -0.126448      -0.125539      -0.124985      -0.124687      -0.124034
           -0.123697      -0.123194      -0.112462      -0.111162      -0.108141
           -0.106084      -0.102673      -0.101291      -0.097465      -0.096447
           -0.093387      -0.092388      -0.090411      -0.089125      -0.088105
           -0.086854      -0.086313      -0.085269      -0.085053      -0.083702
           -0.082341      -0.081033      -0.079936      -0.079338

 **********************************************************************
 *SIRIUS* a direct, restricted step, second order MCSCF program       *
 **********************************************************************

 
     Date and time (Linux)  : Tue Apr 29 21:49:42 2025
     Host name              : xm028                                   

 Title lines from ".mol" input file:
     blah                                                                    
     blah                                                                    

 Print level on unit LUPRI =   2 is   0
 Print level on unit LUW4  =   2 is   5

@    Restricted, closed shell Hartree-Fock calculation.
 Fock matrices are calculated directly and in parallel without use of integrals on disk.

 Initial molecular orbitals are obtained according to
 ".MOSTART EWMO  " input option

     Wave function specification
     ============================
@    Wave function type        --- HF ---
@    Number of closed shell electrons         186
@    Number of electrons in active shells       0
@    Total charge of the molecule               0

@    Spin multiplicity and 2 M_S                1         0
@    Total number of symmetries                 1 (point group: C1 )
@    Reference state symmetry                   1 (irrep name : A  )

     Orbital specifications
     ======================
@    Abelian symmetry species          All |    1
@                                          |  A  
                                       --- |  ---
@    Occupied SCF orbitals              93 |   93
@    Secondary orbitals               1645 | 1645
@    Total number of orbitals         1738 | 1738
@    Number of basis functions        1748 | 1748

     Optimization information
     ========================
@    Number of configurations                 1
@    Number of orbital rotations         152985
     ------------------------------------------
@    Total number of variables           152986

     Maximum number of Fock   iterations      0
     Maximum number of DIIS   iterations     60
     Maximum number of QC-SCF iterations     60
     Threshold for SCF convergence     1.00D-05


 ***********************************************
 ***** DIIS acceleration of SCF iterations *****
 ***********************************************

 C1-DIIS algorithm; max error vectors =    8

 Iter      Total energy        Error norm    Delta(E)  DIIS dim.
 -----------------------------------------------------------------------------
   1  Screening settings (-IFTHRS, JTDIIS, DIFDEN, times)  -10    1    T  8.49D+01  8.53D+01
@  1    -1101.60997636        8.02602D+00   -1.10D+03    1
      Virial theorem: -V/T =      2.011557
@    MULPOP   C_a     0.03; C_b     0.08; C_c     0.01; C_d     0.07; C_e     0.03; C_f     0.07; C_g    -0.03; C_h     0.04; C_i    -0.08; C_j     0.04; 
@             C_k    -0.11; C_l    -0.08; C_m    -0.05; C_n     0.34; C_o    -0.06; C_p     0.01; C_q     0.02; C_r     0.00; C_s    -0.01; C_t     0.09; 
@             C_u     0.18; C_v    -0.03; N_a    -0.71; N_b     0.64; O_a    -0.91; O_b    -0.96; H_a    -0.02; H_b    -0.01; H_c     0.05; H_d     0.03; 
@    MULPOP    dipole moment & components:     31.8205;       21.2486     23.6863      0.0000
   1  Level shift: doubly occupied orbital energies shifted by -2.00D-01
 -----------------------------------------------------------------------------
   2  Screening settings (-IFTHRS, JTDIIS, DIFDEN, times)  -10    2    T  8.30D+01  8.36D+01
@  2    -1105.23062911        3.05651D+00   -3.62D+00    2
      Virial theorem: -V/T =      2.000615
@    MULPOP   C_a    -0.03; C_b    -0.04; C_c    -0.14; C_d    -0.09; C_e    -0.05; C_f    -0.03; C_g    -0.12; C_h    -0.07; C_i    -0.07; C_j     0.13; 
@             C_k     0.06; C_l    -0.08; C_m     0.12; C_n    -0.54; C_o    -0.23; C_p     0.21; C_q     0.04; C_r    -0.10; C_s    -0.08; C_t    -0.14; 
@             C_u    -0.88; C_v     0.22; N_a    -0.55; N_b     0.25; O_a    -0.19; O_b    -0.33; H_a     0.11; H_b     0.05; H_c     0.04; H_d     0.03; 
@    MULPOP    dipole moment & components:     11.2322;        8.0924      7.7894      0.0000
   2  Level shift: doubly occupied orbital energies shifted by -1.00D-01
 -----------------------------------------------------------------------------
   3  Screening settings (-IFTHRS, JTDIIS, DIFDEN, times)  -10    3    T  7.90D+01  7.96D+01
@  3    -1105.70653540        1.05892D+00   -4.76D-01    3
      Virial theorem: -V/T =      2.001794
@    MULPOP   C_a    -0.07; C_b    -0.07; C_c    -0.18; C_d    -0.12; C_e    -0.09; C_f    -0.07; C_g    -0.16; C_h    -0.09; C_i    -0.13; C_j     0.08; 
@             C_k    -0.03; C_l    -0.05; C_m     0.01; C_n    -0.42; C_o    -0.19; C_p     0.18; C_q    -0.00; C_r    -0.09; C_s    -0.10; C_t    -0.14; 
@             C_u    -0.63; C_v     0.23; N_a    -0.54; N_b     0.93; O_a    -0.76; O_b    -0.72; H_a     0.14; H_b     0.09; H_c     0.06; H_d     0.06; 
@    MULPOP    dipole moment & components:      9.8490;        6.9742      6.9543      0.0000
   3  Level shift: doubly occupied orbital energies shifted by -5.00D-02
 -----------------------------------------------------------------------------
   4  Screening settings (-IFTHRS, JTDIIS, DIFDEN, times)  -10    4    T  7.67D+01  7.71D+01
@  4    -1105.77664785        3.09345D-01   -7.01D-02    4
      Virial theorem: -V/T =      2.003447
@    MULPOP   C_a    -0.08; C_b    -0.07; C_c    -0.18; C_d    -0.13; C_e    -0.10; C_f    -0.06; C_g    -0.17; C_h    -0.08; C_i    -0.14; C_j     0.09; 
@             C_k    -0.04; C_l    -0.04; C_m    -0.02; C_n    -0.40; C_o    -0.21; C_p     0.19; C_q    -0.02; C_r    -0.08; C_s    -0.11; C_t    -0.13; 
@             C_u    -0.69; C_v     0.20; N_a    -0.56; N_b     0.72; O_a    -0.62; O_b    -0.66; H_a     0.14; H_b     0.10; H_c     0.06; H_d     0.06; 
@    MULPOP    dipole moment & components:      8.6286;        6.2384      5.9612      0.0000
   4  Level shift: doubly occupied orbital energies shifted by -2.50D-02
 -----------------------------------------------------------------------------
   5  Screening settings (-IFTHRS, JTDIIS, DIFDEN, times)  -10    5    T  7.36D+01  7.39D+01
@  5    -1105.79096411        1.30130D-01   -1.43D-02    5
      Virial theorem: -V/T =      2.002745
@    MULPOP   C_a    -0.10; C_b    -0.08; C_c    -0.19; C_d    -0.14; C_e    -0.11; C_f    -0.07; C_g    -0.18; C_h    -0.09; C_i    -0.15; C_j     0.08; 
@             C_k    -0.05; C_l    -0.04; C_m    -0.03; C_n    -0.41; C_o    -0.22; C_p     0.18; C_q    -0.04; C_r    -0.09; C_s    -0.12; C_t    -0.15; 
@             C_u    -0.68; C_v     0.19; N_a    -0.57; N_b     0.77; O_a    -0.67; O_b    -0.66; H_a     0.16; H_b     0.11; H_c     0.07; H_d     0.07; 
@    MULPOP    dipole moment & components:      7.8528;        5.7819      5.3138      0.0000
   5  Level shift: doubly occupied orbital energies shifted by -1.25D-02
 -----------------------------------------------------------------------------
   6  Screening settings (-IFTHRS, JTDIIS, DIFDEN, times)  -14    6    F  1.02D+02  1.02D+02
@  6    -1105.79522821        6.84503D-02   -4.26D-03    6
      Virial theorem: -V/T =      2.002618
@    MULPOP   C_a    -0.10; C_b    -0.08; C_c    -0.19; C_d    -0.14; C_e    -0.11; C_f    -0.07; C_g    -0.18; C_h    -0.09; C_i    -0.15; C_j     0.08; 
@             C_k    -0.06; C_l    -0.04; C_m    -0.03; C_n    -0.42; C_o    -0.22; C_p     0.18; C_q    -0.04; C_r    -0.09; C_s    -0.12; C_t    -0.15; 
@             C_u    -0.69; C_v     0.20; N_a    -0.58; N_b     0.76; O_a    -0.65; O_b    -0.67; H_a     0.16; H_b     0.12; H_c     0.07; H_d     0.07; 
@    MULPOP    dipole moment & components:      7.3761;        5.4344      4.9875      0.0000
   6  Level shift: doubly occupied orbital energies shifted by -1.25D-02
 -----------------------------------------------------------------------------
   7  Screening settings (-IFTHRS, JTDIIS, DIFDEN, times)  -14    7    T  9.45D+01  9.49D+01
@  7    -1105.79666965        3.29866D-02   -1.44D-03    7
      Virial theorem: -V/T =      2.002651
@    MULPOP   C_a    -0.10; C_b    -0.08; C_c    -0.19; C_d    -0.14; C_e    -0.11; C_f    -0.07; C_g    -0.18; C_h    -0.09; C_i    -0.15; C_j     0.08; 
@             C_k    -0.06; C_l    -0.05; C_m    -0.03; C_n    -0.42; C_o    -0.22; C_p     0.18; C_q    -0.04; C_r    -0.09; C_s    -0.12; C_t    -0.15; 
@             C_u    -0.69; C_v     0.19; N_a    -0.58; N_b     0.76; O_a    -0.65; O_b    -0.66; H_a     0.16; H_b     0.12; H_c     0.07; H_d     0.07; 
@    MULPOP    dipole moment & components:      7.0698;        5.2435      4.7420      0.0000
 -----------------------------------------------------------------------------
   8  Screening settings (-IFTHRS, JTDIIS, DIFDEN, times)  -14    8    T  9.29D+01  9.32D+01
@  8    -1105.79703795        1.46747D-02   -3.68D-04    8
      Virial theorem: -V/T =      2.002645
@    MULPOP   C_a    -0.10; C_b    -0.08; C_c    -0.19; C_d    -0.14; C_e    -0.11; C_f    -0.08; C_g    -0.18; C_h    -0.09; C_i    -0.15; C_j     0.08; 
@             C_k    -0.05; C_l    -0.05; C_m    -0.03; C_n    -0.42; C_o    -0.22; C_p     0.18; C_q    -0.04; C_r    -0.09; C_s    -0.12; C_t    -0.15; 
@             C_u    -0.68; C_v     0.19; N_a    -0.58; N_b     0.77; O_a    -0.65; O_b    -0.66; H_a     0.16; H_b     0.12; H_c     0.07; H_d     0.07; 
@    MULPOP    dipole moment & components:      6.7957;        5.0321      4.5673      0.0000
 -----------------------------------------------------------------------------
   9  Screening settings (-IFTHRS, JTDIIS, DIFDEN, times)  -14    9    T  9.03D+01  9.09D+01
@  9    -1105.79709057        5.85465D-03   -5.26D-05    8
      Virial theorem: -V/T =      2.002636
@    MULPOP   C_a    -0.10; C_b    -0.08; C_c    -0.18; C_d    -0.14; C_e    -0.11; C_f    -0.08; C_g    -0.18; C_h    -0.09; C_i    -0.15; C_j     0.08; 
@             C_k    -0.05; C_l    -0.05; C_m    -0.03; C_n    -0.42; C_o    -0.22; C_p     0.18; C_q    -0.04; C_r    -0.09; C_s    -0.12; C_t    -0.15; 
@             C_u    -0.69; C_v     0.19; N_a    -0.58; N_b     0.77; O_a    -0.65; O_b    -0.66; H_a     0.16; H_b     0.12; H_c     0.07; H_d     0.07; 
@    MULPOP    dipole moment & components:      6.6730;        4.9387      4.4875      0.0000
 -----------------------------------------------------------------------------
  10  Screening settings (-IFTHRS, JTDIIS, DIFDEN, times)  -14   10    T  9.03D+01  9.07D+01
@ 10    -1105.79710493        3.47077D-03   -1.44D-05    8
      Virial theorem: -V/T =      2.002637
@    MULPOP   C_a    -0.10; C_b    -0.08; C_c    -0.18; C_d    -0.14; C_e    -0.11; C_f    -0.08; C_g    -0.18; C_h    -0.09; C_i    -0.15; C_j     0.08; 
@             C_k    -0.05; C_l    -0.05; C_m    -0.02; C_n    -0.42; C_o    -0.22; C_p     0.18; C_q    -0.04; C_r    -0.09; C_s    -0.12; C_t    -0.15; 
@             C_u    -0.68; C_v     0.19; N_a    -0.58; N_b     0.77; O_a    -0.65; O_b    -0.66; H_a     0.16; H_b     0.12; H_c     0.07; H_d     0.07; 
@    MULPOP    dipole moment & components:      6.5763;        4.8572      4.4335      0.0000
 -----------------------------------------------------------------------------
  11  Screening settings (-IFTHRS, JTDIIS, DIFDEN, times)  -14   11    T  8.77D+01  8.82D+01
@ 11    -1105.79711105        2.14891D-03   -6.12D-06    8
      Virial theorem: -V/T =      2.002638
@    MULPOP   C_a    -0.10; C_b    -0.08; C_c    -0.18; C_d    -0.14; C_e    -0.11; C_f    -0.08; C_g    -0.18; C_h    -0.09; C_i    -0.14; C_j     0.08; 
@             C_k    -0.05; C_l    -0.05; C_m    -0.02; C_n    -0.42; C_o    -0.22; C_p     0.18; C_q    -0.04; C_r    -0.09; C_s    -0.12; C_t    -0.15; 
@             C_u    -0.68; C_v     0.19; N_a    -0.59; N_b     0.77; O_a    -0.65; O_b    -0.66; H_a     0.16; H_b     0.12; H_c     0.07; H_d     0.07; 
@    MULPOP    dipole moment & components:      6.5028;        4.7939      4.3938      0.0000
 -----------------------------------------------------------------------------
  12  Screening settings (-IFTHRS, JTDIIS, DIFDEN, times)  -14   12    T  8.75D+01  8.80D+01
@ 12    -1105.79711365        7.87203D-04   -2.60D-06    8
      Virial theorem: -V/T =      2.002636
@    MULPOP   C_a    -0.10; C_b    -0.08; C_c    -0.18; C_d    -0.14; C_e    -0.11; C_f    -0.08; C_g    -0.17; C_h    -0.09; C_i    -0.14; C_j     0.08; 
@             C_k    -0.05; C_l    -0.05; C_m    -0.02; C_n    -0.42; C_o    -0.22; C_p     0.18; C_q    -0.04; C_r    -0.09; C_s    -0.12; C_t    -0.15; 
@             C_u    -0.68; C_v     0.19; N_a    -0.59; N_b     0.77; O_a    -0.65; O_b    -0.66; H_a     0.16; H_b     0.12; H_c     0.07; H_d     0.07; 
@    MULPOP    dipole moment & components:      6.4376;        4.7371      4.3592      0.0000
 -----------------------------------------------------------------------------
  13  Screening settings (-IFTHRS, JTDIIS, DIFDEN, times)  -14   13    T  8.53D+01  8.58D+01
@ 13    -1105.79711398        3.35380D-04   -3.34D-07    8
      Virial theorem: -V/T =      2.002637
@    MULPOP   C_a    -0.10; C_b    -0.08; C_c    -0.18; C_d    -0.14; C_e    -0.11; C_f    -0.08; C_g    -0.17; C_h    -0.09; C_i    -0.14; C_j     0.08; 
@             C_k    -0.05; C_l    -0.05; C_m    -0.02; C_n    -0.42; C_o    -0.22; C_p     0.18; C_q    -0.04; C_r    -0.09; C_s    -0.12; C_t    -0.15; 
@             C_u    -0.68; C_v     0.19; N_a    -0.59; N_b     0.77; O_a    -0.65; O_b    -0.66; H_a     0.16; H_b     0.12; H_c     0.07; H_d     0.07; 
@    MULPOP    dipole moment & components:      6.4130;        4.7155      4.3463      0.0000
 -----------------------------------------------------------------------------
  14  Screening settings (-IFTHRS, JTDIIS, DIFDEN, times)  -14   14    T  8.13D+01  8.18D+01
@ 14    -1105.79711402        1.66225D-04   -3.04D-08    8
      Virial theorem: -V/T =      2.002637
@    MULPOP   C_a    -0.10; C_b    -0.08; C_c    -0.18; C_d    -0.14; C_e    -0.11; C_f    -0.08; C_g    -0.17; C_h    -0.09; C_i    -0.14; C_j     0.08; 
@             C_k    -0.05; C_l    -0.05; C_m    -0.02; C_n    -0.42; C_o    -0.22; C_p     0.18; C_q    -0.04; C_r    -0.09; C_s    -0.12; C_t    -0.15; 
@             C_u    -0.68; C_v     0.19; N_a    -0.59; N_b     0.77; O_a    -0.65; O_b    -0.66; H_a     0.16; H_b     0.12; H_c     0.07; H_d     0.07; 
@    MULPOP    dipole moment & components:      6.4079;        4.7110      4.3437      0.0000
 -----------------------------------------------------------------------------
  15  Screening settings (-IFTHRS, JTDIIS, DIFDEN, times)  -14   15    T  7.92D+01  7.97D+01
@ 15    -1105.79711402        7.27559D-05   -6.64D-09    8
      Virial theorem: -V/T =      2.002637
@    MULPOP   C_a    -0.10; C_b    -0.08; C_c    -0.18; C_d    -0.14; C_e    -0.11; C_f    -0.08; C_g    -0.17; C_h    -0.09; C_i    -0.14; C_j     0.08; 
@             C_k    -0.05; C_l    -0.05; C_m    -0.02; C_n    -0.42; C_o    -0.22; C_p     0.18; C_q    -0.04; C_r    -0.09; C_s    -0.12; C_t    -0.15; 
@             C_u    -0.68; C_v     0.19; N_a    -0.59; N_b     0.77; O_a    -0.65; O_b    -0.66; H_a     0.16; H_b     0.12; H_c     0.07; H_d     0.07; 
@    MULPOP    dipole moment & components:      6.4057;        4.7091      4.3425      0.0000
 -----------------------------------------------------------------------------
  16  Screening settings (-IFTHRS, JTDIIS, DIFDEN, times)  -14   16    T  7.66D+01  7.69D+01
@ 16    -1105.79711402        3.25405D-05   -8.98D-10    8
      Virial theorem: -V/T =      2.002637
@    MULPOP   C_a    -0.10; C_b    -0.08; C_c    -0.18; C_d    -0.14; C_e    -0.11; C_f    -0.08; C_g    -0.17; C_h    -0.09; C_i    -0.14; C_j     0.08; 
@             C_k    -0.05; C_l    -0.05; C_m    -0.02; C_n    -0.42; C_o    -0.22; C_p     0.18; C_q    -0.04; C_r    -0.09; C_s    -0.12; C_t    -0.15; 
@             C_u    -0.68; C_v     0.19; N_a    -0.59; N_b     0.77; O_a    -0.65; O_b    -0.66; H_a     0.16; H_b     0.12; H_c     0.07; H_d     0.07; 
@    MULPOP    dipole moment & components:      6.4053;        4.7088      4.3423      0.0000
 -----------------------------------------------------------------------------
  17  Screening settings (-IFTHRS, JTDIIS, DIFDEN, times)  -14   17    T  7.63D+01  7.65D+01
@ 17    -1105.79711402        2.14084D-05   -2.96D-10    8
      Virial theorem: -V/T =      2.002637
@    MULPOP   C_a    -0.10; C_b    -0.08; C_c    -0.18; C_d    -0.14; C_e    -0.11; C_f    -0.08; C_g    -0.17; C_h    -0.09; C_i    -0.14; C_j     0.08; 
@             C_k    -0.05; C_l    -0.05; C_m    -0.02; C_n    -0.42; C_o    -0.22; C_p     0.18; C_q    -0.04; C_r    -0.09; C_s    -0.12; C_t    -0.15; 
@             C_u    -0.68; C_v     0.19; N_a    -0.59; N_b     0.77; O_a    -0.65; O_b    -0.66; H_a     0.16; H_b     0.12; H_c     0.07; H_d     0.07; 
@    MULPOP    dipole moment & components:      6.4051;        4.7086      4.3422      0.0000
 -----------------------------------------------------------------------------
  18  Screening settings (-IFTHRS, JTDIIS, DIFDEN, times)  -14   18    T  7.60D+01  7.65D+01
@ 18    -1105.79711402        9.33069D-06   -9.14D-11    8

@ *** DIIS converged in  18 iterations !
@     Converged SCF energy, gradient:  -1105.797114023277    9.33D-06
    - total time used in SIRFCK :              0.00 seconds


 *** SCF orbital energy analysis ***

 Only the 20 lowest virtual orbital energies printed in each symmetry.

 Number of electrons :  186
 Orbital occupations :   93

 Sym       Hartree-Fock orbital energies

1 A     -20.58732680   -20.58444569   -15.83762925   -15.59256442   -11.30273214
        -11.28939754   -11.28784240   -11.27826858   -11.27019541   -11.26427120
        -11.25962321   -11.25940287   -11.25580626   -11.25492414   -11.25283476
        -11.25257866   -11.25201135   -11.24990477   -11.24903321   -11.24840358
        -11.24596827   -11.24267057   -11.23894030   -11.23453731   -11.22962002
        -11.22710195    -1.57758567    -1.37548875    -1.23744749    -1.14318164
         -1.12815022    -1.11828829    -1.10843638    -1.09577342    -1.07971566
         -1.06052394    -1.03844157    -1.01367346    -0.98644113    -0.95726813
         -0.93580556    -0.88793431    -0.85648632    -0.82653014    -0.80202250
         -0.78683805    -0.78242101    -0.77368930    -0.76749445    -0.76383186
         -0.75310956    -0.75080328    -0.73454235    -0.71748521    -0.71123801
         -0.69543295    -0.68108317    -0.67186092    -0.66822147    -0.65210758
         -0.64225875    -0.63161475    -0.61738807    -0.60501393    -0.59987725
         -0.58047460    -0.57586436    -0.56461086    -0.55148937    -0.55063155
         -0.53968589    -0.53172087    -0.53039825    -0.52510492    -0.52290812
         -0.51671963    -0.51093321    -0.50539182    -0.49901289    -0.49816666
         -0.48610034    -0.48020201    -0.47778682    -0.47334739    -0.45639618
         -0.43876285    -0.43458263    -0.40826762    -0.37747512    -0.34259251
         -0.30441162    -0.26478918    -0.22730754     0.00513929     0.01561214
          0.02283010     0.02486558     0.02641963     0.02903926     0.03125482
          0.03499837     0.03918116     0.04089350     0.04248353     0.04842758
          0.05238015     0.05889844     0.06443559     0.07040703     0.07674012
          0.07795791     0.07863463     0.07945367

    E(LUMO) :     0.00513929 au (symmetry 1)
  - E(HOMO) :    -0.22730754 au (symmetry 1)
  ------------------------------------------
    gap     :     0.23244683 au

 --- Writing SIRIFC interface file

 CPU and wall time for SCF :    2261.269    2273.951


                       .-----------------------------------.
                       | --- Final results from SIRIUS --- |
                       `-----------------------------------'


@    Spin multiplicity:           1
@    Spatial symmetry:            1 ( irrep  A   in C1  )
@    Total charge of molecule:    0

@    Final HF energy:           -1105.797114023277                 
@    Nuclear repulsion:          1581.530184833914
@    Electronic energy:         -2687.327298857190

@    Final gradient norm:           0.000009330690

 
     Date and time (Linux)  : Tue Apr 29 22:27:47 2025
     Host name              : xm028                                   

File label for MO orbitals:  29Apr25   FOCKDIIS

 (Only coefficients > 0.0100 are printed.)

 Molecular orbitals for symmetry species 1  (A  )
 ------------------------------------------------

    Orbital        84       85       86       87       88       89       90
   8 C_a :2pz    0.2211  -0.0660  -0.0273  -0.1736  -0.2075  -0.0327   0.2345
  14 C_a :2pz    0.0002   0.0032   0.0007  -0.0039  -0.0003  -0.0080   0.0102
  17 C_a :2pz    0.0035  -0.0010   0.0038  -0.0047  -0.0059  -0.0025   0.0130
  26 C_a :3d1+   0.0074   0.0020  -0.0014  -0.0106  -0.0039  -0.0109   0.0106
  54 C_b :2pz    0.1915   0.0374  -0.0285  -0.2246  -0.1012  -0.1707   0.1928
  63 C_b :2pz    0.0035   0.0002  -0.0004  -0.0044  -0.0036  -0.0056   0.0108
  72 C_b :3d1+  -0.0083   0.0037   0.0012   0.0070   0.0117  -0.0006  -0.0141
  75 C_b :3d1-   0.0131  -0.0073   0.0003  -0.0025  -0.0114  -0.0007   0.0031
 100 C_c :2pz    0.1112   0.1746  -0.0165  -0.1814   0.1279  -0.2087  -0.1012
 118 C_c :3d1+   0.0021   0.0093   0.0001  -0.0026   0.0115  -0.0030  -0.0137
 121 C_c :3d1-   0.0169  -0.0061   0.0001  -0.0031  -0.0119   0.0040   0.0029
 123 C_c :3d1+   0.0220  -0.0013  -0.0006  -0.0082  -0.0050  -0.0064  -0.0034
 146 C_d :2pz    0.0377   0.2236  -0.0020  -0.0794   0.2160  -0.0859  -0.2128
 155 C_d :2pz    0.0003   0.0038   0.0010  -0.0024   0.0056  -0.0043  -0.0114
 164 C_d :3d1+  -0.0038  -0.0065   0.0009   0.0093  -0.0048   0.0131   0.0038
 167 C_d :3d1-   0.0226   0.0037  -0.0011  -0.0091  -0.0005  -0.0073  -0.0045
 169 C_d :3d1+   0.0215  -0.0010  -0.0007  -0.0066  -0.0088  -0.0010   0.0028
 192 C_e :2pz   -0.0748   0.2237   0.0200   0.1082   0.1908   0.1747  -0.1235
 210 C_e :3d1+  -0.0042   0.0068   0.0013   0.0095   0.0019   0.0130   0.0047
 213 C_e :3d1-   0.0207   0.0074  -0.0010  -0.0102  -0.0030  -0.0082  -0.0010
 215 C_e :3d1+   0.0252   0.0139   0.0001  -0.0045   0.0044   0.0009  -0.0055
 238 C_f :2pz   -0.1428   0.1686   0.0282   0.1973   0.0720   0.2320   0.0457
 254 C_f :3d1-  -0.0048   0.0010   0.0009   0.0074  -0.0068   0.0026   0.0109
 256 C_f :3d1+   0.0031  -0.0090  -0.0008  -0.0035  -0.0112  -0.0080   0.0098
 259 C_f :3d1-   0.0229   0.0168   0.0008   0.0006   0.0055   0.0036  -0.0035
 261 C_f :3d1+   0.0228   0.0137  -0.0000  -0.0061   0.0012  -0.0053  -0.0035
 284 C_g :2pz   -0.2207   0.0401   0.0276   0.2328  -0.1504   0.1020   0.2406
 293 C_g :2pz   -0.0033   0.0006  -0.0000   0.0047  -0.0046   0.0032   0.0130
 302 C_g :3d1+  -0.0080  -0.0021   0.0007   0.0071  -0.0119  -0.0052   0.0085
 305 C_g :3d1-   0.0141   0.0185   0.0008   0.0001   0.0068   0.0010  -0.0069
 307 C_g :3d1+   0.0181   0.0225   0.0016   0.0098  -0.0019   0.0037   0.0036
 330 C_h :2pz   -0.2483  -0.0586   0.0178   0.1727  -0.2264  -0.0578   0.1662
 346 C_h :3d1-  -0.0057  -0.0049  -0.0002  -0.0004  -0.0061  -0.0102  -0.0076
 348 C_h :3d1+   0.0081  -0.0019  -0.0012  -0.0106   0.0056  -0.0083  -0.0149
 351 C_h :3d1-   0.0151   0.0204   0.0020   0.0137  -0.0066   0.0014   0.0026
 353 C_h :3d1+   0.0143   0.0220   0.0014   0.0077   0.0018   0.0028  -0.0044
 376 C_i :2pz   -0.2601  -0.1860  -0.0036   0.0081  -0.1873  -0.2396  -0.1336
 382 C_i :2pz    0.0051   0.0014  -0.0001  -0.0022   0.0003  -0.0074  -0.0106
 394 C_i :3d1+  -0.0079  -0.0085  -0.0008  -0.0053  -0.0018  -0.0102  -0.0141
 397 C_i :3d1-   0.0026   0.0170   0.0021   0.0138  -0.0042   0.0048   0.0027
 399 C_i :3d1+   0.0059   0.0169   0.0023   0.0158  -0.0128  -0.0079  -0.0048
 422 C_j :2pz   -0.2407  -0.2345  -0.0174  -0.1091  -0.0647  -0.2016  -0.2242
 431 C_j :2pz   -0.0033  -0.0038  -0.0010  -0.0021  -0.0017  -0.0068  -0.0105
 440 C_j :3d1+   0.0091   0.0070   0.0000  -0.0018   0.0108   0.0128   0.0056
 443 C_j :3d1-   0.0052   0.0125   0.0018   0.0132  -0.0128  -0.0092  -0.0044
 445 C_j :3d1+   0.0020   0.0159   0.0024   0.0159  -0.0104  -0.0013   0.0018
 468 C_k :2pz   -0.1918  -0.2493  -0.0306  -0.2336   0.1554   0.0300  -0.1060
 486 C_k :3d1+  -0.0043  -0.0066  -0.0011  -0.0090   0.0106   0.0097   0.0053
 489 C_k :3d1-  -0.0069   0.0049   0.0014   0.0110  -0.0127  -0.0068  -0.0006
 514 C_l :2pz   -0.1369  -0.2046  -0.0296  -0.2358   0.2268   0.1685   0.0680
 532 C_l :3d1+   0.0070   0.0104   0.0013   0.0103  -0.0062   0.0011   0.0092
 537 C_l :3d1+  -0.0079   0.0012   0.0008   0.0069  -0.0108  -0.0097  -0.0064
 560 C_m :2pz   -0.0450  -0.0908  -0.0166  -0.1396   0.1877   0.2264   0.2501
 566 C_m :2pz    0.0017   0.0019   0.0002   0.0010   0.0022   0.0077   0.0142
 569 C_m :2pz   -0.0001  -0.0011  -0.0005  -0.0027   0.0053   0.0093   0.0150
 606 C_n :2pz    0.0300   0.0197  -0.0001  -0.0059   0.0410   0.0824   0.1260
 622 C_n :3d1-   0.0046   0.0064   0.0010   0.0078  -0.0089  -0.0099  -0.0107
 624 C_n :3d1+   0.0033   0.0067   0.0012   0.0103  -0.0139  -0.0167  -0.0185
 652 C_o :2pz   -0.1910   0.1598   0.0023  -0.0926   0.0052  -0.1135   0.2068
 658 C_o :2pz   -0.0012   0.0011  -0.0133   0.0031   0.0043  -0.0078   0.0114
 661 C_o :2pz   -0.0023   0.0026  -0.0012  -0.0014   0.0004  -0.0043   0.0103
 670 C_o :3d1+  -0.0063   0.0032   0.0006   0.0021   0.0080  -0.0122   0.0131
 673 C_o :3d1-  -0.0093   0.0109  -0.0017  -0.0106  -0.0116   0.0112  -0.0095
 675 C_o :3d1+  -0.0127   0.0160  -0.0002  -0.0136  -0.0101   0.0040   0.0003
 698 C_p :2pz   -0.1419   0.0692   0.0148   0.0311   0.1350  -0.2054   0.2195
 707 C_p :2pz   -0.0025   0.0019  -0.0123   0.0014   0.0034  -0.0082   0.0141
 716 C_p :3d1+   0.0075  -0.0075  -0.0004   0.0059   0.0017   0.0046  -0.0118
 719 C_p :3d1-  -0.0137   0.0165   0.0047  -0.0117  -0.0059  -0.0005   0.0012
 721 C_p :3d1+  -0.0129   0.0143  -0.0022  -0.0115  -0.0105   0.0084  -0.0077
 744 C_q :2pz   -0.0287  -0.0962   0.0284   0.1996   0.2262  -0.1404  -0.0286
 760 C_q :3d1-   0.0036  -0.0022  -0.0007  -0.0006  -0.0047   0.0086  -0.0104
 762 C_q :3d1+   0.0019  -0.0077   0.0009   0.0105   0.0066   0.0025  -0.0115
 765 C_q :3d1-  -0.0168   0.0168   0.0022  -0.0129  -0.0093   0.0034   0.0003
 767 C_q :3d1+  -0.0160   0.0129   0.0007  -0.0025   0.0020  -0.0025  -0.0032
 790 C_r :2pz    0.0552  -0.1761   0.0248   0.2204   0.1484   0.0127  -0.1685
 806 C_r :3d1-   0.0046  -0.0066  -0.0002   0.0032  -0.0051   0.0107  -0.0069
 808 C_r :3d1+   0.0013   0.0034  -0.0017  -0.0090  -0.0127   0.0104  -0.0009
 811 C_r :3d1-  -0.0133   0.0084   0.0007   0.0035   0.0054  -0.0025  -0.0036
 813 C_r :3d1+  -0.0162   0.0135  -0.0009  -0.0064  -0.0039   0.0007   0.0005
 836 C_s :2pz    0.1646  -0.2244   0.0055   0.1256  -0.0816   0.2283  -0.1708
 854 C_s :3d1+   0.0079  -0.0076  -0.0006  -0.0008  -0.0109   0.0107   0.0009
 857 C_s :3d1-  -0.0120   0.0065   0.0025   0.0020   0.0051  -0.0055   0.0002
 882 C_t :2pz    0.2063  -0.1880  -0.0100   0.0052  -0.1909   0.2035  -0.0147
 898 C_t :3d1-   0.0058  -0.0012  -0.0010  -0.0068  -0.0074  -0.0033   0.0115
 900 C_t :3d1+  -0.0063   0.0098  -0.0004  -0.0075   0.0021  -0.0125   0.0124
 928 C_u :2pz   -0.1495   0.1817  -0.0075  -0.2123  -0.2363   0.2505  -0.2495
 934 C_u :2pz    0.0011   0.0023  -0.0092  -0.0022  -0.0061   0.0086  -0.0118
 937 C_u :2pz   -0.0034   0.0044  -0.0159  -0.0036  -0.0067   0.0090  -0.0116
 946 C_u :3d1+  -0.0087   0.0104  -0.0058  -0.0104  -0.0106   0.0091  -0.0067
 951 C_u :3d1+  -0.0023   0.0066  -0.0323  -0.0040  -0.0101   0.0110  -0.0109
 974 C_v :2pz   -0.1835   0.2031  -0.0168  -0.2073  -0.1956   0.1656  -0.1211
 980 C_v :2pz    0.0051  -0.0061   0.0297   0.0009   0.0019   0.0007  -0.0026
 983 C_v :2pz   -0.0021   0.0025   0.0221  -0.0066  -0.0054   0.0064  -0.0074
 990 C_v :3d1-  -0.0054   0.0045   0.0008  -0.0018   0.0025  -0.0075   0.0119
 992 C_v :3d1+   0.0051  -0.0069  -0.0004   0.0094   0.0118  -0.0141   0.0156
1020 N_a :2pz    0.1207   0.1605   0.0227   0.1814  -0.1961  -0.2046  -0.2083
1026 N_a :2pz    0.0020   0.0047   0.0008   0.0066  -0.0087  -0.0109  -0.0136
1029 N_a :2pz    0.0044   0.0067   0.0012   0.0092  -0.0122  -0.0159  -0.0205
1066 N_b :2pz    0.0231  -0.0232   0.0086   0.0193   0.0142  -0.0059  -0.0040
1079 N_b :3d1+  -0.0009   0.0013  -0.0193   0.0014  -0.0008   0.0010  -0.0011
1082 N_b :3d1-  -0.0059   0.0072   0.0157  -0.0110  -0.0107   0.0116  -0.0119
1084 N_b :3d1+  -0.0029   0.0042  -0.0552   0.0034  -0.0026   0.0033  -0.0036
1089 N_b :3d1+  -0.0014   0.0013   0.0161  -0.0035  -0.0014   0.0007  -0.0002
1112 O_a :2pz    0.0583  -0.0770   0.6415  -0.0075   0.0652  -0.0751   0.0779
1118 O_a :2pz    0.0033  -0.0045   0.0616  -0.0037   0.0035  -0.0052   0.0065
1121 O_a :2pz    0.0018  -0.0031   0.0439  -0.0025   0.0032  -0.0050   0.0069
1130 O_a :3d1+   0.0019  -0.0023   0.0165  -0.0001   0.0016  -0.0016   0.0014
1135 O_a :3d1+   0.0013  -0.0015   0.0191  -0.0013   0.0006  -0.0007   0.0008
1158 O_b :2pz    0.0416  -0.0412  -0.6351   0.1421   0.0822  -0.0801   0.0778
1164 O_b :2pz    0.0033  -0.0028  -0.0610   0.0121   0.0060  -0.0056   0.0057
1167 O_b :2pz    0.0008  -0.0009  -0.0459   0.0083   0.0046  -0.0054   0.0067
1174 O_b :3d1-   0.0007  -0.0006  -0.0125   0.0024   0.0009  -0.0006   0.0004
1176 O_b :3d1+  -0.0012   0.0012   0.0110  -0.0029  -0.0018   0.0016  -0.0014
1179 O_b :3d1-   0.0011  -0.0009  -0.0170   0.0034   0.0014  -0.0011   0.0008
1715 H_w :2pz    0.0012   0.0012  -0.0162  -0.0002  -0.0039   0.0051  -0.0057

    Orbital        91       92       93       94       95       96       97
   2 C_a :1s    -0.0000  -0.0000  -0.0000  -0.0000   0.0009  -0.0104   0.0067
   4 C_a :1s     0.0000  -0.0000  -0.0000  -0.0000   0.0579   0.6819  -0.3832
   5 C_a :1s     0.0000  -0.0000   0.0000   0.0000  -0.4092  11.5084 -10.6620
   6 C_a :2px    0.0000   0.0000  -0.0000  -0.0000  -0.0020   0.0121  -0.0078
   7 C_a :2py   -0.0000   0.0000  -0.0000  -0.0000   0.0019  -0.0132   0.0077
   8 C_a :2pz    0.1034   0.1955   0.2139   0.1515   0.0000   0.0000   0.0000
  12 C_a :2px    0.0000  -0.0000  -0.0000   0.0000  -0.0031  -0.0288   0.2977
  13 C_a :2py    0.0000  -0.0000  -0.0000   0.0000  -0.0556   0.5401  -0.3092
  14 C_a :2pz    0.0012   0.0156   0.0173   0.0137  -0.0000  -0.0000  -0.0000
  15 C_a :2px   -0.0000  -0.0000  -0.0000   0.0000  -2.5453   2.1597  -0.5612
  16 C_a :2py   -0.0000   0.0000  -0.0000   0.0000  -2.4585  -0.3744   1.7235
  17 C_a :2pz    0.0065   0.0302   0.0400   0.0979   0.0000   0.0000   0.0000
  23 C_a :3d2-   0.0000   0.0000  -0.0000   0.0000   0.0082  -0.0160   0.0053
  24 C_a :3d1-  -0.0087   0.0112   0.0046  -0.0166  -0.0000   0.0000  -0.0000
  25 C_a :3d0    0.0000   0.0000   0.0000   0.0000   0.0011  -0.0128   0.0105
  26 C_a :3d1+  -0.0058   0.0158   0.0083  -0.0190  -0.0000   0.0000   0.0000
  28 C_a :3d2-   0.0000   0.0000  -0.0000   0.0000  -0.1921  -0.1771  -0.1006
  29 C_a :3d1-  -0.0017   0.0013   0.0013  -0.0156  -0.0000   0.0000   0.0000
  30 C_a :3d0   -0.0000   0.0000   0.0000   0.0000   0.0265  -0.1591   0.1658
  31 C_a :3d1+   0.0017   0.0059   0.0051  -0.0258  -0.0000  -0.0000  -0.0000
  32 C_a :3d2+   0.0000  -0.0000   0.0000   0.0000  -0.0440   0.2690   0.0878
  40 C_a :4f3-   0.0000  -0.0000  -0.0000  -0.0000  -0.0009   0.0196  -0.0252
  46 C_a :4f3+  -0.0000  -0.0000   0.0000  -0.0000  -0.0005   0.0274  -0.0169
  48 C_b :1s     0.0000   0.0000   0.0000   0.0000   0.0020   0.0129  -0.0167
  50 C_b :1s    -0.0000   0.0000   0.0000  -0.0000  -0.0209  -0.5068   0.6539
  51 C_b :1s    -0.0000   0.0000  -0.0000   0.0000   0.1901 -12.2771   9.9611
  52 C_b :2px    0.0000   0.0000   0.0000   0.0000   0.0013   0.0181  -0.0196
  53 C_b :2py   -0.0000  -0.0000   0.0000   0.0000  -0.0012  -0.0199   0.0211
  54 C_b :2pz   -0.0655   0.2305   0.1220  -0.2382  -0.0000  -0.0000  -0.0000
  56 C_b :2py   -0.0000   0.0000   0.0000  -0.0000   0.0039   0.0034  -0.0145
  58 C_b :2px    0.0000  -0.0000  -0.0000   0.0000  -0.0587   0.1639   0.0775
  59 C_b :2py   -0.0000  -0.0000   0.0000  -0.0000  -0.0655   0.3380  -0.1621
  60 C_b :2pz    0.0025   0.0135   0.0130  -0.0235   0.0000   0.0000   0.0000
  61 C_b :2px    0.0000   0.0000  -0.0000  -0.0000  -2.4427   2.4407  -0.8835
  62 C_b :2py    0.0000  -0.0000  -0.0000   0.0000  -1.8370  -0.3555   1.8248
  63 C_b :2pz   -0.0053   0.0275   0.0307  -0.1435  -0.0000  -0.0000  -0.0000
  69 C_b :3d2-   0.0000  -0.0000  -0.0000   0.0000   0.0035   0.0055  -0.0230
  70 C_b :3d1-  -0.0105  -0.0068  -0.0135  -0.0097   0.0000   0.0000   0.0000
  71 C_b :3d0   -0.0000  -0.0000  -0.0000  -0.0000   0.0036   0.0100  -0.0100
  72 C_b :3d1+  -0.0089  -0.0127  -0.0161  -0.0120  -0.0000   0.0000   0.0000
  74 C_b :3d2-   0.0000   0.0000  -0.0000  -0.0000  -0.1586  -0.1236  -0.6482
  76 C_b :3d0   -0.0000  -0.0000   0.0000  -0.0000   0.0385   0.1752  -0.1050
  77 C_b :3d1+  -0.0002  -0.0060  -0.0060  -0.0204  -0.0000  -0.0000  -0.0000
  78 C_b :3d2+   0.0000  -0.0000   0.0000  -0.0000   0.0644  -0.1539  -0.1172
  86 C_b :4f3-  -0.0000  -0.0000   0.0000  -0.0000  -0.0018   0.0255  -0.0151
  92 C_b :4f3+  -0.0000  -0.0000  -0.0000  -0.0000   0.0030   0.0215  -0.0242
  96 C_c :1s    -0.0000  -0.0000  -0.0000  -0.0000  -0.0820   0.8340  -0.0755
  97 C_c :1s     0.0000  -0.0000  -0.0000  -0.0000  -2.2521  12.0450  -6.4419
  98 C_c :2px   -0.0000   0.0000  -0.0000  -0.0000  -0.0014   0.0109  -0.0054
  99 C_c :2py   -0.0000   0.0000  -0.0000  -0.0000   0.0019  -0.0122   0.0039
 100 C_c :2pz   -0.2202  -0.1043  -0.2422  -0.1226   0.0000   0.0000   0.0000
 104 C_c :2px    0.0000  -0.0000  -0.0000  -0.0000   0.0536   0.0677   0.1915
 105 C_c :2py   -0.0000   0.0000   0.0000  -0.0000  -0.1815   0.5556  -0.3164
 106 C_c :2pz   -0.0085  -0.0108  -0.0202  -0.0124  -0.0000  -0.0000  -0.0000
 107 C_c :2px   -0.0000  -0.0000  -0.0000  -0.0000  -2.8010   2.2414   1.0431
 108 C_c :2py   -0.0000  -0.0000  -0.0000   0.0000  -1.8047  -0.3479   2.0915
 109 C_c :2pz   -0.0162  -0.0189  -0.0471  -0.0778   0.0000   0.0000   0.0000
 115 C_c :3d2-  -0.0000  -0.0000  -0.0000  -0.0000   0.0170  -0.0118   0.0005
 116 C_c :3d1-   0.0022  -0.0117  -0.0065   0.0151  -0.0000   0.0000   0.0000
 117 C_c :3d0    0.0000   0.0000   0.0000  -0.0000   0.0057  -0.0161   0.0029
 118 C_c :3d1+  -0.0044  -0.0145  -0.0109   0.0172   0.0000   0.0000   0.0000
 120 C_c :3d2-   0.0000  -0.0000  -0.0000  -0.0000   0.1596  -0.1307  -0.1775
 122 C_c :3d0   -0.0000  -0.0000   0.0000  -0.0000   0.0623  -0.1791   0.0887
 123 C_c :3d1+  -0.0053  -0.0036  -0.0054   0.0155  -0.0000  -0.0000   0.0000
 124 C_c :3d2+   0.0000  -0.0000   0.0000  -0.0000  -0.1202   0.0969  -0.2645
 132 C_c :4f3-  -0.0000   0.0000  -0.0000   0.0000  -0.0020   0.0293  -0.0076
 138 C_c :4f3+  -0.0000  -0.0000   0.0000   0.0000  -0.0103   0.0253  -0.0107
 140 C_d :1s     0.0000  -0.0000  -0.0000  -0.0000   0.0011   0.0146  -0.0072
 142 C_d :1s     0.0000   0.0000  -0.0000   0.0000  -0.2916  -0.9286   0.0676
 143 C_d :1s    -0.0000   0.0000  -0.0000   0.0000  -0.1412 -11.7949   5.3653
 144 C_d :2px    0.0000   0.0000   0.0000   0.0000   0.0011   0.0175  -0.0128
 145 C_d :2py    0.0000  -0.0000   0.0000   0.0000  -0.0004  -0.0197   0.0137
 146 C_d :2pz   -0.0920  -0.2044  -0.1589   0.2156  -0.0000  -0.0000  -0.0000
 148 C_d :2py    0.0000  -0.0000  -0.0000  -0.0000   0.0003   0.0078  -0.0116
 150 C_d :2px    0.0000  -0.0000  -0.0000  -0.0000  -0.1338   0.1874  -0.0432
 151 C_d :2py    0.0000   0.0000  -0.0000   0.0000  -0.1504   0.4747   0.0774
 152 C_d :2pz   -0.0086  -0.0098  -0.0152   0.0243   0.0000   0.0000   0.0000
 153 C_d :2px   -0.0000  -0.0000  -0.0000   0.0000  -3.3104   1.9920   0.1249
 154 C_d :2py    0.0000  -0.0000  -0.0000   0.0000  -3.4964  -0.7393   1.4706
 155 C_d :2pz   -0.0076  -0.0209  -0.0358   0.1375  -0.0000  -0.0000  -0.0000
 161 C_d :3d2-  -0.0000  -0.0000  -0.0000  -0.0000   0.0176   0.0130  -0.0138
 162 C_d :3d1-   0.0120   0.0006   0.0145   0.0074   0.0000   0.0000   0.0000
 163 C_d :3d0   -0.0000   0.0000   0.0000   0.0000   0.0039   0.0146   0.0009
 164 C_d :3d1+   0.0155   0.0058   0.0180   0.0094  -0.0000   0.0000   0.0000
 166 C_d :3d2-  -0.0000   0.0000  -0.0000   0.0000   0.1082   0.4751   0.1456
 168 C_d :3d0   -0.0000   0.0000   0.0000   0.0000   0.0025   0.1409  -0.0645
 170 C_d :3d2+  -0.0000   0.0000   0.0000   0.0000  -0.0807  -0.1155   0.0156
 178 C_d :4f3-  -0.0000   0.0000   0.0000   0.0000  -0.0040   0.0253   0.0013
 184 C_d :4f3+  -0.0000   0.0000  -0.0000   0.0000   0.0037   0.0266  -0.0097
 188 C_e :1s    -0.0000   0.0000   0.0000  -0.0000  -0.2101   0.2607  -0.5257
 189 C_e :1s     0.0000  -0.0000  -0.0000  -0.0000   0.6833  10.8252  -3.1583
 190 C_e :2px   -0.0000   0.0000  -0.0000  -0.0000  -0.0011   0.0106  -0.0009
 191 C_e :2py   -0.0000   0.0000  -0.0000  -0.0000   0.0009  -0.0110   0.0004
 192 C_e :2pz    0.2293  -0.0116   0.2604   0.0931   0.0000   0.0000   0.0000
 196 C_e :2px    0.0000  -0.0000  -0.0000  -0.0000  -0.1547   0.0595   0.0679
 197 C_e :2py    0.0000   0.0000  -0.0000   0.0000  -0.1882   0.5824  -0.1465
 198 C_e :2pz    0.0129   0.0035   0.0223   0.0088  -0.0000  -0.0000   0.0000
 199 C_e :2px    0.0000  -0.0000  -0.0000   0.0000  -2.7396   2.0944   1.6399
 200 C_e :2py    0.0000   0.0000  -0.0000   0.0000  -2.9216  -0.1491   2.2217
 201 C_e :2pz    0.0176   0.0032   0.0525   0.0545   0.0000   0.0000   0.0000
 207 C_e :3d2-  -0.0000   0.0000   0.0000   0.0000   0.0083  -0.0053   0.0139
 208 C_e :3d1-   0.0052   0.0100   0.0084  -0.0135  -0.0000   0.0000  -0.0000
 210 C_e :3d1+   0.0127   0.0102   0.0134  -0.0153  -0.0000   0.0000  -0.0000
 212 C_e :3d2-  -0.0000  -0.0000   0.0000  -0.0000  -0.0129   0.1830   0.3317
 213 C_e :3d1-  -0.0030   0.0013   0.0026  -0.0129  -0.0000   0.0000   0.0000
 214 C_e :3d0    0.0000   0.0000  -0.0000  -0.0000  -0.0318  -0.1844   0.0215
 215 C_e :3d1+   0.0056   0.0013   0.0077  -0.0183  -0.0000   0.0000   0.0000
 216 C_e :3d2+   0.0000   0.0000   0.0000   0.0000  -0.1366   0.2658  -0.0772
 224 C_e :4f3-  -0.0000   0.0000  -0.0000   0.0000  -0.0029   0.0227  -0.0037
 230 C_e :4f3+  -0.0000   0.0000   0.0000   0.0000   0.0035   0.0182  -0.0106
 232 C_f :1s    -0.0000   0.0000  -0.0000   0.0000   0.0017   0.0109  -0.0048
 234 C_f :1s    -0.0000   0.0000  -0.0000   0.0000  -0.0263  -0.5900   0.2346
 235 C_f :1s     0.0000   0.0000   0.0000   0.0000  -0.5328  -9.8969   3.0246
 236 C_f :2px    0.0000  -0.0000   0.0000   0.0000  -0.0003   0.0168  -0.0047
 237 C_f :2py    0.0000  -0.0000   0.0000   0.0000   0.0010  -0.0192   0.0044
 238 C_f :2pz    0.2080   0.1340   0.1922  -0.1879  -0.0000  -0.0000   0.0000
 240 C_f :2py   -0.0000   0.0000  -0.0000   0.0000   0.0043   0.0111  -0.0034
 242 C_f :2px    0.0000  -0.0000  -0.0000  -0.0000  -0.1782   0.1425  -0.2108
 243 C_f :2py    0.0000   0.0000  -0.0000  -0.0000   0.0086   0.2151  -0.3107
 244 C_f :2pz    0.0103   0.0036   0.0169  -0.0216   0.0000   0.0000  -0.0000
 245 C_f :2px   -0.0000  -0.0000  -0.0000   0.0000  -2.9212   1.8564   1.1243
 246 C_f :2py   -0.0000  -0.0000  -0.0000   0.0000  -2.4947  -0.8096   1.4885
 247 C_f :2pz    0.0163   0.0103   0.0391  -0.1239  -0.0000  -0.0000   0.0000
 253 C_f :3d2-  -0.0000   0.0000  -0.0000   0.0000   0.0043   0.0185   0.0035
 254 C_f :3d1-  -0.0073   0.0057  -0.0147  -0.0055   0.0000   0.0000   0.0000
 256 C_f :3d1+  -0.0144   0.0025  -0.0192  -0.0072  -0.0000   0.0000   0.0000
 258 C_f :3d2-   0.0000  -0.0000  -0.0000  -0.0000   0.0230   0.0910  -0.2436
 260 C_f :3d0    0.0000   0.0000  -0.0000  -0.0000   0.0418   0.1061  -0.0357
 261 C_f :3d1+  -0.0051  -0.0014  -0.0071  -0.0121  -0.0000  -0.0000  -0.0000
 262 C_f :3d2+   0.0000  -0.0000   0.0000   0.0000   0.1550  -0.1977  -0.1416
 270 C_f :4f3-   0.0000   0.0000   0.0000  -0.0000   0.0006   0.0094  -0.0131
 276 C_f :4f3+   0.0000  -0.0000  -0.0000  -0.0000   0.0068   0.0180  -0.0087
 280 C_g :1s    -0.0000  -0.0000   0.0000  -0.0000   0.0305   0.7009   0.4702
 281 C_g :1s    -0.0000   0.0000  -0.0000  -0.0000  -1.8663   8.9107  -1.4387
 283 C_g :2py   -0.0000  -0.0000  -0.0000  -0.0000   0.0001  -0.0109  -0.0041
 284 C_g :2pz   -0.1187   0.1277  -0.2647  -0.0648   0.0000   0.0000  -0.0000
 286 C_g :2py   -0.0000  -0.0000   0.0000   0.0000  -0.0035   0.0063   0.0109
 288 C_g :2px   -0.0000   0.0000  -0.0000  -0.0000  -0.0978   0.0541   0.0187
 289 C_g :2py    0.0000   0.0000  -0.0000  -0.0000  -0.2714   0.4322  -0.2693
 290 C_g :2pz   -0.0106   0.0043  -0.0227  -0.0056  -0.0000  -0.0000   0.0000
 291 C_g :2px    0.0000   0.0000  -0.0000   0.0000  -3.5898   1.5268   1.9225
 292 C_g :2py    0.0000  -0.0000  -0.0000  -0.0000  -2.8889  -0.6467   1.5868
 293 C_g :2pz   -0.0090   0.0136  -0.0554  -0.0317   0.0000   0.0000  -0.0000
 299 C_g :3d2-   0.0000  -0.0000  -0.0000   0.0000   0.0109  -0.0195  -0.0113
 300 C_g :3d1-  -0.0102  -0.0062  -0.0099   0.0114  -0.0000   0.0000   0.0000
 302 C_g :3d1+  -0.0147  -0.0035  -0.0152   0.0128   0.0000  -0.0000  -0.0000
 303 C_g :3d2+  -0.0000   0.0000   0.0000   0.0000  -0.0125   0.0044  -0.0025
 304 C_g :3d2-   0.0000  -0.0000   0.0000   0.0000   0.0229  -0.3382  -0.4609
 306 C_g :3d0   -0.0000   0.0000  -0.0000   0.0000   0.1030  -0.0899   0.0941
 308 C_g :3d2+   0.0000   0.0000   0.0000  -0.0000  -0.0507   0.0984  -0.2966
 316 C_g :4f3-   0.0000  -0.0000  -0.0000  -0.0000  -0.0078   0.0129  -0.0102
 322 C_g :4f3+   0.0000  -0.0000   0.0000  -0.0000  -0.0051   0.0154  -0.0062
 324 C_h :1s    -0.0000   0.0000  -0.0000   0.0000  -0.0022   0.0114   0.0036
 326 C_h :1s    -0.0000   0.0000  -0.0000   0.0000   0.5304  -0.5293  -0.0452
 327 C_h :1s     0.0000  -0.0000   0.0000   0.0000  -0.8082 -10.2505  -2.9728
 328 C_h :2px    0.0000   0.0000   0.0000   0.0000  -0.0015   0.0163   0.0038
 329 C_h :2py    0.0000   0.0000   0.0000   0.0000   0.0043  -0.0181  -0.0039
 330 C_h :2pz   -0.2183  -0.0312  -0.2175   0.1576  -0.0000  -0.0000   0.0000
 331 C_h :2px   -0.0000  -0.0000  -0.0000  -0.0000  -0.0065  -0.0094  -0.0178
 332 C_h :2py    0.0000  -0.0000   0.0000  -0.0000  -0.0033   0.0015  -0.0136
 334 C_h :2px   -0.0000   0.0000  -0.0000  -0.0000  -0.3203   0.1670  -0.0873
 335 C_h :2py   -0.0000   0.0000  -0.0000   0.0000  -0.0847   0.4547   0.1508
 336 C_h :2pz   -0.0045   0.0042  -0.0184   0.0197   0.0000   0.0000  -0.0000
 337 C_h :2px   -0.0000  -0.0000  -0.0000   0.0000  -3.4921   1.7191   1.7186
[...]
1635 H_t :1s    -0.0909   0.0719  -0.0571   0.0061   0.0436  -0.0000
1636 H_t :1s    -0.6787   0.7879  -0.4966   0.1522   0.6198   0.0000
1637 H_t :1s    -0.8006  -1.6289   1.7688   1.7060  -0.8888  -0.0000
1641 H_t :2px    0.0018  -0.0274   0.0106   0.0046  -0.0126  -0.0000
1642 H_t :2py    0.0033   0.0188  -0.0178  -0.0018   0.0128   0.0000
1644 H_t :2px   -0.0037  -0.1001   0.1472   0.0112  -0.1004  -0.0000
1645 H_t :2py   -0.1356   0.1586   0.0075   0.0729   0.0834   0.0000
1652 H_t :3d2-  -0.0240  -0.0060   0.0024   0.0078  -0.0049  -0.0000
1654 H_t :3d0   -0.0115  -0.0046  -0.0019   0.0007  -0.0024  -0.0000
1657 H_u :1s     0.0336  -0.0035  -0.0057   0.0036   0.0098   0.0000
1658 H_u :1s    -0.0748   0.0871  -0.0369   0.0101  -0.0793  -0.0000
1659 H_u :1s     0.1297   1.1589  -1.2613  -0.0825  -0.9141  -0.0000
1660 H_u :1s    -0.4463  -0.4001   0.7264  -0.4475   0.8275   0.0000
1664 H_u :2px   -0.0043  -0.0213   0.0138  -0.0088   0.0031  -0.0000
1665 H_u :2py    0.0025   0.0133  -0.0111   0.0121  -0.0047  -0.0000
1667 H_u :2px   -0.0693  -0.1578   0.2394  -0.0036   0.1075   0.0000
1668 H_u :2py   -0.0239   0.1732  -0.1028   0.0517  -0.0874  -0.0000
1675 H_u :3d2-  -0.0206   0.0017   0.0057  -0.0066  -0.0092  -0.0000
1680 H_v :1s     0.0327   0.0036  -0.0073  -0.0047   0.0093  -0.0000
1681 H_v :1s    -0.0002   0.0094   0.0243   0.0745   0.0480   0.0000
1682 H_v :1s     0.8890   0.2652  -0.1186   0.4790   0.2686   0.0000
1683 H_v :1s    -1.6482   0.0584  -0.3550  -1.1016  -2.4934  -0.0000
1687 H_v :2px    0.0161   0.0094  -0.0018   0.0192   0.0161   0.0000
1688 H_v :2py   -0.0155  -0.0120  -0.0022  -0.0122  -0.0175  -0.0000
1690 H_v :2px    0.1290  -0.0323  -0.0076   0.0007   0.1046   0.0000
1691 H_v :2py   -0.0833  -0.1559   0.0348  -0.1671   0.0093  -0.0000
1698 H_v :3d2-  -0.0195  -0.0048   0.0049   0.0013  -0.0080  -0.0000
1703 H_w :1s     0.0155   0.0040   0.0033  -0.0167  -0.0045   0.0000
1704 H_w :1s    -0.1192   0.1488   0.0816   0.0270  -0.1130  -0.0000
1705 H_w :1s    -1.5195   1.8715   1.0437   0.3095  -1.3786  -0.0000
1706 H_w :1s    -0.3509  -1.8362  -1.9459   1.6054   3.3987   0.0000
1710 H_w :2px   -0.0148   0.0475   0.0177  -0.0108  -0.0266   0.0000
1711 H_w :2py    0.0038  -0.0189  -0.0181   0.0062   0.0246  -0.0000
1713 H_w :2px   -0.1845   0.2491   0.1599   0.0255  -0.2524  -0.0000
1714 H_w :2py    0.2367  -0.3460  -0.1144  -0.0192   0.1325  -0.0000
1715 H_w :2pz    0.0000  -0.0000   0.0000  -0.0000  -0.0000  -0.0267
1721 H_w :3d2-  -0.0129  -0.0040  -0.0033   0.0135   0.0064   0.0000
1726 H_x :1s     0.0185   0.0097   0.0080  -0.0202  -0.0097   0.0000
1727 H_x :1s    -0.0681   0.0568  -0.0937   0.0207   0.1094   0.0000
1728 H_x :1s     0.0553   0.4302  -0.9527  -0.3308   1.1943   0.0000
1729 H_x :1s     0.0686  -1.1766   1.1747   1.1397  -1.6859  -0.0000
1733 H_x :2px    0.0160  -0.0307   0.0119   0.0063  -0.0124  -0.0000
1734 H_x :2py   -0.0049   0.0255  -0.0135  -0.0086   0.0168   0.0000
1736 H_x :2px   -0.0644  -0.0895   0.1323   0.0782  -0.1777  -0.0000
1737 H_x :2py   -0.0752   0.0984  -0.0953  -0.0063   0.1387  -0.0000
1738 H_x :2pz    0.0000   0.0000   0.0000  -0.0000  -0.0000  -0.0107
1744 H_x :3d2-  -0.0099  -0.0163  -0.0054   0.0186   0.0062   0.0000

  Total CPU  time used in SIRIUS : 42 minutes 46 seconds
  Total wall time used in SIRIUS : 43 minutes  0 seconds

 
     Date and time (Linux)  : Tue Apr 29 22:27:50 2025
     Host name              : xm028                                   

 NOTE:    1 warnings have been issued.
 Check output, result, and error files for "WARNING".


                     .---------------------------------------.
                     | End of Wave Function Section (SIRIUS) |
                     `---------------------------------------'



        *****************************************************************
        ******** Output from **PROPE input processing for ABACUS ********
        *****************************************************************



 The following molecular properties will be calculated in this run:
 ------------------------------------------------------------------

 Default print level:        0

      Electronic excitation energies 
      Direct calculation - no two-electron integrals written or read.
      Two-electron integrals will be calculated in parallel
      Natural orbital connection is used
      for perturbation dependent basis sets.


 Changes of defaults for .EXCITA:
 --------------------------------

 Number of excitation energies:    4
 Print level          :    0
 Integral print level :    0
 Convergence threshold: 1.00E-04
 Maximum iterations   :   60

 Center of mass dipole origin  :   -0.209926   -0.214777    0.000000

 Center of mass gauge origin   :   -0.209926   -0.214777    0.000000


                 .------------------------------------------------.
                 | Starting in Static Property Section (ABACUS) - |
                 `------------------------------------------------'


 
     Date and time (Linux)  : Tue Apr 29 22:27:50 2025
     Host name              : xm028                                   


                  **********************************************
                  *** ABACUS - Excitation energies (.EXCITA) ***
                  **********************************************

  Time used in EXCITA     is       1 hour  38 minutes  3 seconds


   ***************************************************************************
   ************************ FINAL RESULTS from ABACUS ************************
   ***************************************************************************


 
     Date and time (Linux)  : Wed Apr 30 00:25:01 2025
     Host name              : xm028                                   


                             Molecular geometry (au)
                             -----------------------

 C_a       -3.4246788492           -1.8249406396            0.0000000000
 C_b       -0.9068852398           -1.1716207497            0.0000000000
 C_c        0.0000000000            1.3885348497            0.0000000000
 C_d        2.5216599894            2.0298171895            0.0000000000
 C_e        3.4431490292            4.5844774689            0.0000000000
 C_f        5.9683484785            5.2117928387            0.0000000000
 C_g        6.9080280183            7.7603530881            0.0000000000
 C_h        9.4370825077            8.3689544979            0.0000000000
 C_i       10.4025398074           10.9094796273            0.0000000000
 C_j       12.9364055368           11.4897238172            0.0000000000
 C_k       13.9434405866           14.0172400666            0.0000000000
 C_l       16.4847140460           14.5458059064            0.0000000000
 C_m       17.5688612657           17.0442732858            0.0000000000
 C_n       20.1272102851           17.4372153857            0.0000000000
 C_o      -13.5512317067          -11.6117490971            0.0000000000
 C_p      -11.0605670073          -10.9032662073            0.0000000000
 C_q      -10.2111955875           -8.3145870780            0.0000000000
 C_r       -7.7064675481           -7.6316230481            0.0000000000
 C_s       -6.8305114583           -5.0567653788            0.0000000000
 C_t       -4.3177293989           -4.3910715589            0.0000000000
 C_u      -16.7855697859          -14.9604968563            0.0000000000
 C_v      -14.3354245865          -14.2301838565            0.0000000000
 N_a       21.3198995948           19.7323085452            0.0000000000
 N_b      -17.4761853157          -17.6289961257            0.0000000000
 O_a      -19.7708816351          -18.0746861456            0.0000000000
 O_b      -15.7836653361          -19.2303972853            0.0000000000
 H_a       -4.8460854888           -0.3086092799            0.0000000000
 H_b        0.5106682499           -2.6925687093            0.0000000000
 H_c       -1.4133828597            2.9124988193            0.0000000000
 H_d        3.9310611990            0.5011685999            0.0000000000
 H_e        2.0383322995            6.1164217485            0.0000000000
 H_f        7.3681933382            3.6741264791            0.0000000000
 H_g        5.5139543786            9.3020804777            0.0000000000
 H_h       10.8238901473            6.8191031783            0.0000000000
 H_i        9.0238523178           12.4648451669            0.0000000000
 H_j       14.3024356365            9.9207579076            0.0000000000
 H_k       12.5910335169           15.5948911462            0.0000000000
 H_l       17.8096974056           12.9411392968            0.0000000000
 H_m       16.2872867960           18.6775012154            0.0000000000
 H_n       21.4075091847           15.8061568561            0.0000000000
 H_o       20.3160827450           21.3573917548            0.0000000000
 H_p       23.2211398143           19.8519433251            0.0000000000
 H_q      -15.0202934663          -10.1451080875            0.0000000000
 H_r       -9.6071332976          -12.3890747070            0.0000000000
 H_s      -11.6567434771           -6.8222798083            0.0000000000
 H_t       -6.2688319385           -9.1332920278            0.0000000000
 H_u       -2.8917533993           -5.9040448785            0.0000000000
 H_v       -8.2615216780           -3.5500678491            0.0000000000
 H_w      -18.4280800455          -13.7122439366            0.0000000000
 H_x      -12.8879945368          -15.7134487861            0.0000000000





                        Molecular wave function and energy
                        ----------------------------------

     Spatial symmetry   1 ( A   )
     Spin multiplicity  1
     2 * M_S            0
     State number       1
     Total charge       0

     Total energy      -1105.7971140233 au (Hartrees)
                        -30090.27012795 eV
                          -2903269.8753 kJ/mol
                           -693898.1537 kcal/mol


                   Scalar Breit-Pauli relativistic corrections
                   -------------------------------------------

     Darwin correction:                          1.9686146760 au
     Mass-velocity correction:                  -2.4511012005 au

     Total relativistic correction:             -0.4824865245 au ( 0.0436%)
     Non-relativistic + relativistic energy: -1106.2796005478 au



      (Note that these corrections are NOT included in the results below.)


                                  Dipole moment
                                  -------------

                 au               Debye          C m (/(10**-30)
              6.576206          16.715048          55.755399


                             Dipole moment components
                             ------------------------

                 au               Debye          C m (/(10**-30)

      x      4.62619330        11.75860974        39.22250020
      y      4.67384481        11.87972778        39.62650649
      z      0.00000000         0.00000000         0.00000000


   Units:   1 a.u. =   2.54175 Debye 
            1 a.u. =   8.47835 (10**-30) C m (SI)




@               Singlet electronic excitation energies
                --------------------------------------

               ========================================
                 Sym.   Mode   Frequency    Frequency
                ex. st.  No.      (au)         (eV)
               ----------------------------------------
                   1      1     0.098537     2.681321
                   1      2     0.157254     4.279097
                   1      3     0.160498     4.367373
                   1      4     0.163136     4.439165
               ========================================

  Max    interatomic separation is   30.3378 Angstrom (   57.3301 Bohr)
  between atoms   42 and   25, "H_p   " and "O_a   ".

  Min HX interatomic separation is    1.0081 Angstrom (    1.9050 Bohr)

  Min YX interatomic separation is    1.2330 Angstrom (    2.3300 Bohr)


  Bond distances (Angstrom):
  --------------------------

                  atom 1     atom 2       distance
                  ------     ------       --------
  bond distance:  C_b        C_a          1.376483
  bond distance:  C_c        C_b          1.437263
  bond distance:  C_d        C_c          1.376879
  bond distance:  C_e        C_d          1.437126
  bond distance:  C_f        C_e          1.376894
  bond distance:  C_g        C_f          1.437392
  bond distance:  C_h        C_g          1.376523
  bond distance:  C_i        C_h          1.438192
  bond distance:  C_j        C_i          1.375572
  bond distance:  C_k        C_j          1.439757
  bond distance:  C_l        C_k          1.373564
  bond distance:  C_m        C_l          1.441240
  bond distance:  C_n        C_m          1.369696
  bond distance:  C_p        C_o          1.370289
  bond distance:  C_q        C_p          1.441723
  bond distance:  C_r        C_q          1.373834
  bond distance:  C_s        C_r          1.439244
  bond distance:  C_t        C_a          1.437821
  bond distance:  C_t        C_s          1.375578
  bond distance:  C_v        C_o          1.446422
  bond distance:  C_v        C_u          1.352932
  bond distance:  N_a        C_n          1.368715
  bond distance:  N_b        C_u          1.458633
  bond distance:  O_a        N_b          1.236993
  bond distance:  O_b        N_b          1.233007
  bond distance:  H_a        C_a          1.099831
  bond distance:  H_b        C_b          1.100223
  bond distance:  H_c        C_c          1.099889
  bond distance:  H_d        C_d          1.100279
  bond distance:  H_e        C_e          1.099920
  bond distance:  H_f        C_f          1.100381
  bond distance:  H_g        C_g          1.099921
  bond distance:  H_h        C_h          1.100545
  bond distance:  H_i        C_i          1.099867
  bond distance:  H_j        C_j          1.100853
  bond distance:  H_k        C_k          1.099618
  bond distance:  H_l        C_l          1.101215
  bond distance:  H_m        C_m          1.098583
  bond distance:  H_n        C_n          1.097264
  bond distance:  H_o        N_a          1.010790
  bond distance:  H_p        N_a          1.008083
  bond distance:  H_q        C_o          1.098496
  bond distance:  H_r        C_p          1.099886
  bond distance:  H_s        C_q          1.099440
  bond distance:  H_t        C_r          1.100104
  bond distance:  H_u        C_t          1.100192
  bond distance:  H_v        C_s          1.099610
  bond distance:  H_w        C_u          1.091693
  bond distance:  H_x        C_v          1.096703


  Bond angles (degrees):
  ----------------------

                  atom 1     atom 2     atom 3         angle
                  ------     ------     ------         -----
  bond angle:     C_b        C_a        C_t          123.735
  bond angle:     C_b        C_a        H_a          118.603
  bond angle:     C_t        C_a        H_a          117.662
  bond angle:     C_a        C_b        C_c          124.052
  bond angle:     C_a        C_b        H_b          118.438
  bond angle:     C_c        C_b        H_b          117.509
  bond angle:     C_b        C_c        C_d          123.774
  bond angle:     C_b        C_c        H_c          117.650
  bond angle:     C_d        C_c        H_c          118.576
  bond angle:     C_c        C_d        C_e          124.103
  bond angle:     C_c        C_d        H_d          118.407
  bond angle:     C_e        C_d        H_d          117.489
  bond angle:     C_d        C_e        C_f          123.786
  bond angle:     C_d        C_e        H_e          117.644
  bond angle:     C_f        C_e        H_e          118.570
  bond angle:     C_e        C_f        C_g          124.191
  bond angle:     C_e        C_f        H_f          118.363
  bond angle:     C_g        C_f        H_f          117.447
  bond angle:     C_f        C_g        C_h          123.770
  bond angle:     C_f        C_g        H_g          117.640
  bond angle:     C_h        C_g        H_g          118.590
  bond angle:     C_g        C_h        C_i          124.339
  bond angle:     C_g        C_h        H_h          118.292
  bond angle:     C_i        C_h        H_h          117.370
  bond angle:     C_h        C_i        C_j          123.706
  bond angle:     C_h        C_i        H_i          117.638
  bond angle:     C_j        C_i        H_i          118.656
  bond angle:     C_i        C_j        C_k          124.622
  bond angle:     C_i        C_j        H_j          118.147
  bond angle:     C_k        C_j        H_j          117.232
  bond angle:     C_j        C_k        C_l          123.473
  bond angle:     C_j        C_k        H_k          117.672
  bond angle:     C_l        C_k        H_k          118.855
  bond angle:     C_k        C_l        C_m          125.207
  bond angle:     C_k        C_l        H_l          117.797
  bond angle:     C_m        C_l        H_l          116.996
  bond angle:     C_l        C_m        C_n          122.189
  bond angle:     C_l        C_m        H_m          118.422
  bond angle:     C_n        C_m        H_m          119.389
  bond angle:     C_m        C_n        N_a          126.191
  bond angle:     C_m        C_n        H_n          119.398
  bond angle:     N_a        C_n        H_n          114.410
  bond angle:     C_p        C_o        C_v          122.551
  bond angle:     C_p        C_o        H_q          119.169
  bond angle:     C_v        C_o        H_q          118.280
  bond angle:     C_o        C_p        C_q          124.044
  bond angle:     C_o        C_p        H_r          118.490
  bond angle:     C_q        C_p        H_r          117.466
  bond angle:     C_p        C_q        C_r          123.417
  bond angle:     C_p        C_q        H_s          117.747
  bond angle:     C_r        C_q        H_s          118.836
  bond angle:     C_q        C_r        C_s          124.040
  bond angle:     C_q        C_r        H_t          118.500
  bond angle:     C_s        C_r        H_t          117.460
  bond angle:     C_r        C_s        C_t          123.626
  bond angle:     C_r        C_s        H_v          117.688
  bond angle:     C_t        C_s        H_v          118.686
  bond angle:     C_a        C_t        C_s          124.027
  bond angle:     C_a        C_t        H_u          117.507
  bond angle:     C_s        C_t        H_u          118.466
  bond angle:     C_v        C_u        N_b          121.108
  bond angle:     C_v        C_u        H_w          126.169
  bond angle:     N_b        C_u        H_w          112.724
  bond angle:     C_o        C_v        C_u          123.270
  bond angle:     C_o        C_v        H_x          119.028
  bond angle:     C_u        C_v        H_x          117.702
  bond angle:     C_n        N_a        H_o          120.837
  bond angle:     C_n        N_a        H_p          121.060
  bond angle:     H_o        N_a        H_p          118.103
  bond angle:     C_u        N_b        O_a          115.501
  bond angle:     C_u        N_b        O_b          118.905
  bond angle:     O_a        N_b        O_b          125.593




 CPU time statistics for ABACUS
 ------------------------------

 MAGINT     00:18:30      16 %
 EXCITA     01:38:03      84 %

 TOTAL      01:56:32     100 %


  Total CPU  time used in ABACUS:   1 hour  56 minutes 32 seconds
  Total wall time used in ABACUS:   1 hour  57 minutes 11 seconds


                   .-------------------------------------------.
                   | End of Static Property Section (ABACUS) - |
                   `-------------------------------------------'

  Total CPU  time used in DALTON:   2 hours 39 minutes 38 seconds
  Total wall time used in DALTON:   2 hours 40 minutes 31 seconds

 
     Date and time (Linux)  : Wed Apr 30 00:25:01 2025
     Host name              : xm028                                   
