

     ************************************************************************
     *************** Dalton - An Electronic Structure Program ***************
     ************************************************************************

    This is output from DALTON release Dalton2020.0 (2020)
         ( Web site: http://daltonprogram.org )

   ----------------------------------------------------------------------------

    NOTE:
     
    Dalton is an experimental code for the evaluation of molecular
    properties using (MC)SCF, DFT, CI, and CC wave functions.
    The authors accept no responsibility for the performance of
    the code or for the correctness of the results.
     
    The code (in whole or part) is provided under a licence and
    is not to be reproduced for further distribution without
    the written permission of the authors or their representatives.
     
    See the home page "http://daltonprogram.org" for further information.
     
    If results obtained with this code are published,
    the appropriate citations would be both of:
     
       K. Aidas, C. Angeli, K. L. Bak, V. Bakken, R. Bast,
       L. Boman, O. Christiansen, R. Cimiraglia, S. Coriani,
       P. Dahle, E. K. Dalskov, U. Ekstroem,
       T. Enevoldsen, J. J. Eriksen, P. Ettenhuber, B. Fernandez,
       L. Ferrighi, H. Fliegl, L. Frediani, K. Hald, A. Halkier,
       C. Haettig, H. Heiberg, T. Helgaker, A. C. Hennum,
       H. Hettema, E. Hjertenaes, S. Hoest, I.-M. Hoeyvik,
       M. F. Iozzi, B. Jansik, H. J. Aa. Jensen, D. Jonsson,
       P. Joergensen, J. Kauczor, S. Kirpekar,
       T. Kjaergaard, W. Klopper, S. Knecht, R. Kobayashi, H. Koch,
       J. Kongsted, A. Krapp, K. Kristensen, A. Ligabue,
       O. B. Lutnaes, J. I. Melo, K. V. Mikkelsen, R. H. Myhre,
       C. Neiss, C. B. Nielsen, P. Norman, J. Olsen,
       J. M. H. Olsen, A. Osted, M. J. Packer, F. Pawlowski,
       T. B. Pedersen, P. F. Provasi, S. Reine, Z. Rinkevicius,
       T. A. Ruden, K. Ruud, V. Rybkin, P. Salek, C. C. M. Samson,
       A. Sanchez de Meras, T. Saue, S. P. A. Sauer,
       B. Schimmelpfennig, K. Sneskov, A. H. Steindal,
       K. O. Sylvester-Hvid, P. R. Taylor, A. M. Teale,
       E. I. Tellgren, D. P. Tew, A. J. Thorvaldsen, L. Thoegersen,
       O. Vahtras, M. A. Watson, D. J. D. Wilson, M. Ziolkowski
       and H. Agren,
       "The Dalton quantum chemistry program system",
       WIREs Comput. Mol. Sci. 2014, 4:269–284 (doi: 10.1002/wcms.1172)
     
    and
     
       Dalton, a molecular electronic structure program,
       Release Dalton2020.0 (2020), see http://daltonprogram.org
   ----------------------------------------------------------------------------

    Authors in alphabetical order (Major contribution(s) in parenthesis):

  Kestutis Aidas,           Vilnius University,           Lithuania   (QM/MM)
  Celestino Angeli,         University of Ferrara,        Italy       (NEVPT2)
  Keld L. Bak,              UNI-C,                        Denmark     (AOSOPPA, non-adiabatic coupling, magnetic properties)
  Vebjoern Bakken,          University of Oslo,           Norway      (DALTON; geometry optimizer, symmetry detection)
  Radovan Bast,             UiT The Arctic U. of Norway,  Norway      (DALTON installation and execution frameworks)
  Pablo Baudin,             University of Valencia,       Spain       (Cholesky excitation energies)
  Linus Boman,              NTNU,                         Norway      (Cholesky decomposition and subsystems)
  Bruno N. Cabral Tenorio,  Technical Univ. of Denmark,   Denmark     (Lanczos-based CC methods)
  Ove Christiansen,         Aarhus University,            Denmark     (CC module)
  Renzo Cimiraglia,         University of Ferrara,        Italy       (NEVPT2)
  Sonia Coriani,            Technical Univ. of Denmark,   Denmark     (CC and RESPONS modules)
  Janusz Cukras,            University of Warsaw,         Poland      (MChD in RESPONS)
  Paal Dahle,               University of Oslo,           Norway      (Parallelization)
  Erik K. Dalskov,          UNI-C,                        Denmark     (SOPPA)
  Thomas Enevoldsen,        Univ. of Southern Denmark,    Denmark     (SOPPA)
  Janus J. Eriksen,         Aarhus University,            Denmark     (Polarizable embedding, TDA)
  Rasmus Faber,             Technical Univ. of Denmark,   Denmark     (Vib.avg. NMR w. SOPPA, parallel AO-SOPPA, CVS-CC and EOMCC)
  Tobias Fahleson,          KTH Stockholm,                Sweden      (Damped cubic response)
  Berta Fernandez,          U. of Santiago de Compostela, Spain       (Doublet spin, ESR in RESPONS)
  Lara Ferrighi,            Aarhus University,            Denmark     (PCM Cubic response)
  Heike Fliegl,             University of Oslo,           Norway      (CCSD(R12))
  Luca Frediani,            UiT The Arctic U. of Norway,  Norway      (PCM)
  Emmanuel Fromager,        Univ. Strasbourg,             France      (MC-srDFT)
  Bin Gao,                  UiT The Arctic U. of Norway,  Norway      (Gen1Int library)
  Andre S. P. Gomes,        CNRS/Universite de Lille,     France      (Frozen density embedding)
  Christof Haettig,         Ruhr-University Bochum,       Germany     (CC module)
  Kasper Hald,              Aarhus University,            Denmark     (CC module)
  Asger Halkier,            Aarhus University,            Denmark     (CC module)
  Frederik Beyer Hansen,    University of Copenhagen,     Denmark     (Parallel AO-SOPPA)
  Erik D. Hedegaard,        Univ. of Southern Denmark,    Denmark     (Polarizable embedding, QM/MM, and MC-srDFT)
  Hanne Heiberg,            University of Oslo,           Norway      (Geometry analysis, selected one-electron integrals)
  Trygve Helgaker,          University of Oslo,           Norway      (DALTON; ABACUS, ERI, DFT modules, London, and much more)
  Alf Christian Hennum,     University of Oslo,           Norway      (Parity violation)
  Hinne Hettema,            University of Auckland,       New Zealand (Quadratic response in RESPONS; SIRIUS supersymmetry)
  Eirik Hjertenaes,         NTNU,                         Norway      (Cholesky decomposition)
  Pi A. B. Haase,           University of Copenhagen,     Denmark     (Triplet AO-SOPPA)
  Maria Francesca Iozzi,    University of Oslo,           Norway      (RPA)
  Christoph Jacob           TU Braunschweig               Germany     (Frozen density embedding)
  Brano Jansik              Technical Univ. of Ostrava    Czech Rep.  (DFT cubic response)
  Hans Joergen Aa. Jensen,  Univ. of Southern Denmark,    Denmark     (DALTON; SIRIUS, RESPONS, ABACUS, MC-srDFT, and much more)
  Dan Jonsson,              UiT The Arctic U. of Norway,  Norway      (Cubic response in RESPONS module)
  Poul Joergensen,          Aarhus University,            Denmark     (RESPONS, ABACUS, and CC modules)
  Maciej Kaminski,          University of Warsaw,         Poland      (CPPh in RESPONS)
  Joanna Kauczor,           Linkoeping University,        Sweden      (Complex polarization propagator (CPP) module)
  Sheela Kirpekar,          Univ. of Southern Denmark,    Denmark     (Mass-velocity & Darwin integrals)
  Erik Kjellgren,           Univ. of Southern Denmark,    Denmark     (MC-srDFT)
  Wim Klopper,              KIT Karlsruhe,                Germany     (R12 code in CC, SIRIUS, and ABACUS modules)
  Stefan Knecht,            ETH Zurich,                   Switzerland (Parallel CI and MCSCF, MC-srDFT)
  Rika Kobayashi,           Australian National Univ.,    Australia   (DIIS in CC, London in MCSCF)
  Henrik Koch,              NTNU,                         Norway      (CC module, Cholesky decomposition)
  Jacob Kongsted,           Univ. of Southern Denmark,    Denmark     (Polarizable embedding, polarizable density embedding, QM/MM)
  Andrea Ligabue,           University of Modena,         Italy       (CTOCD, AOSOPPA)
  Nanna H. List             Univ. of Southern Denmark,    Denmark     (Polarizable embedding)
  Ola B. Lutnaes,           University of Oslo,           Norway      (DFT Hessian)
  Juan I. Melo,             University of Buenos Aires,   Argentina   (LRESC, Relativistic Effects on NMR Shieldings)
  Kurt V. Mikkelsen,        University of Copenhagen,     Denmark     (MC-SCRF and QM/MM)
  Rolf H. Myhre,            NTNU,                         Norway      (Subsystems and CC3)
  Christian Neiss,          Univ. Erlangen-Nuernberg,     Germany     (CCSD(R12))
  Christian B. Nielsen,     University of Copenhagen,     Denmark     (QM/MM)
  Patrick Norman,           KTH Stockholm,                Sweden      (Cubic response and complex frequency response in RESPONS)
  Jeppe Olsen,              Aarhus University,            Denmark     (SIRIUS CI/density modules)
  Jogvan Magnus H. Olsen,   Aarhus University,            Denmark     (Polarizable embedding and polarizable density embedding)
  Anders Osted,             Copenhagen University,        Denmark     (QM/MM)
  Martin J. Packer,         University of Sheffield,      UK          (SOPPA)
  Filip Pawlowski,          Kazimierz Wielki University,  Poland      (CC3)
  Morten N. Pedersen,       Univ. of Southern Denmark,    Denmark     (Polarizable embedding)
  Thomas B. Pedersen,       University of Oslo,           Norway      (Cholesky decomposition)
  Patricio F. Provasi,      University of Northeastern,   Argentina   (Analysis of coupling constants in localized orbitals)
  Peter Reinholdt,          Univ. of Southern Denmark,    Denmark     (Polarizable embedding and polarizable density embedding)
  Zilvinas Rinkevicius,     KTH Stockholm,                Sweden      (open-shell DFT, ESR)
  Elias Rudberg,            KTH Stockholm,                Sweden      (DFT grid and basis info)
  Torgeir A. Ruden,         University of Oslo,           Norway      (Numerical derivatives in ABACUS)
  Kenneth Ruud,             UiT The Arctic U. of Norway,  Norway      (DALTON; ABACUS magnetic properties and much more)
  Pawel Salek,              KTH Stockholm,                Sweden      (DALTON; DFT code)
  Claire C. M. Samson       University of Karlsruhe       Germany     (Boys localization, r12 integrals in ERI)
  Alfredo Sanchez de Meras, University of Valencia,       Spain       (CC module, Cholesky decomposition)
  Trond Saue,               Paul Sabatier University,     France      (direct Fock matrix construction)
  Stephan P. A. Sauer,      University of Copenhagen,     Denmark     (SOPPA(CCSD), SOPPA prop., AOSOPPA, vibrational g-factors)
  Bernd Schimmelpfennig,    Forschungszentrum Karlsruhe,  Germany     (AMFI module)
  Anna K. Schnack-Petersen, University of Copenhagen,     Denmark     (RPA(D) and HRPA(D) properties in AOSOPPA)
  Kristian Sneskov,         Aarhus University,            Denmark     (Polarizable embedding, QM/MM)
  Arnfinn H. Steindal,      UiT The Arctic U. of Norway,  Norway      (parallel QM/MM, polarizable embedding)
  Casper Steinmann,         Aalborg University,           Denmark     (QFIT, polarizable embedding)
  K. O. Sylvester-Hvid,     University of Copenhagen,     Denmark     (MC-SCRF)
  Peter R. Taylor,          VLSCI/Univ. of Melbourne,     Australia   (Symmetry handling ABACUS, integral transformation)
  Andrew M. Teale,          University of Nottingham,     England     (DFT-AC, DFT-D)
  David P. Tew,             University of Bristol,        England     (CCSD(R12))
  Julien Toulouse,          Sorbonne Univ.,               France      (MC-srDFT)
  Olav Vahtras,             KTH Stockholm,                Sweden      (Triplet response, spin-orbit, ESR, TDDFT, open-shell DFT)
  Lucas Visscher,           Vrije Universiteit Amsterdam, Netherlands (Frozen density embedding)
  David J. Wilson,          La Trobe University,          Australia   (DFT Hessian and DFT magnetizabilities)
  Hans Agren,               KTH Stockholm,                Sweden      (SIRIUS module, RESPONS, MC-SCRF solvation)
 --------------------------------------------------------------------------------

     Date and time (Linux)  : Fri May  2 05:07:34 2025
     Host name              : xm046                                   

 * Work memory size             :  1310720000 =  9.766 gigabytes.

 * Directories for basis set searches:
   1) /gpfs/projects/rjh/adrian/summer2025/beta_projects/raw_data/NLO/dalton/hf/n14/excited-state
   2) /gpfs/projects/rjh/adrian/dalton/build/basis


Compilation information
-----------------------

 Who compiled             | ahurtado
 Host                     | milan2
 System                   | Linux-5.14.0-427.42.1.el9_4.x86_64
 CMake generator          | Unix Makefiles
 Processor                | x86_64
 64-bit integers          | OFF
 MPI                      | ON
 Fortran compiler         | /gpfs/software/openmpi/milan/gcc13.2/4.1.6/bin/mpi
                          | f90
 Fortran compiler version | GNU Fortran (GCC) 13.2.0
 C compiler               | /gpfs/software/openmpi/milan/gcc13.2/4.1.6/bin/mpi
                          | cc
 C compiler version       | gcc (GCC) 13.2.0
 C++ compiler             | /gpfs/software/openmpi/milan/gcc13.2/4.1.6/bin/mpi
                          | cxx
 C++ compiler version     | unknown
 BLAS                     | /gpfs/software/intel/oneAPI/2024_2/mkl/2024.2/lib/
                          | intel64/libmkl_gf_lp64.so;/gpfs/software/intel/one
                          | API/2024_2/mkl/2024.2/lib/intel64/libmkl_sequentia
                          | l.so;/gpfs/software/intel/oneAPI/2024_2/mkl/2024.2
                          | /lib/intel64/libmkl_core.so;/usr/lib64/libpthread.
                          | a;/usr/lib64/libm.so
 LAPACK                   | /gpfs/software/intel/oneAPI/2024_2/mkl/2024.2/lib/
                          | intel64/libmkl_lapack95_lp64.a;/gpfs/software/inte
                          | l/oneAPI/2024_2/mkl/2024.2/lib/intel64/libmkl_gf_l
                          | p64.so
 Static linking           | OFF
 Last Git revision        | 66052b3af5ea7225e31178bf9a8b031913c72190
 Git branch               | (HEAD detached at Dalton2020.0)
 Configuration time       | 2025-04-10 16:02:31.569498

 * MPI parallel run using 96 processes.


   Content of the .dal input file
 ----------------------------------

**DALTON INPUT
.RUN PROPERTIES
.DIRECT
**WAVE FUNCTIONS
.HF
**PROPERTIES
.EXCITA
*EXCITA
.NEXCIT
   4  4  4  4  4  4  4  4  4  4
**END OF DALTON INPUT


   Content of the .mol file
 ----------------------------

BASIS
aug-cc-pVTZ
blah
blah
Atomtype=4 Angstrom Charge=0 Nosymmetry
Charge=6 Atoms=28
C_a -0.28844299851542915 -0.8333669989446016 0.0
C_b 0.0 0.513405999382555 0.0
C_c -0.9964850009912315 1.5483060008450387 0.0
C_d -0.7046519980123525 2.8944489978275767 0.0
C_e -1.6978069979440518 3.9325589988335286 0.0
C_f -1.401586999469732 5.277698998622735 0.0
C_g -2.3903829973804354 6.3202269996169 0.0
C_h -2.0880589979905304 7.663780002243079 0.0
C_i -3.0707240016561324 8.712722001454614 0.0
C_j -2.7595039988858816 10.053717998631747 0.0
C_k -3.7329849997660025 11.112427000453527 0.0
C_l -3.4078599979347723 12.449051999162299 0.0
C_m -4.3658840023716 13.523947997389493 0.0
C_n -4.015104002524055 14.851942999518178 0.0
C_o -4.941639999678566 15.956107000793486 0.0
C_p -4.523213001529069 17.260270999374455 0.0
C_q 2.6190920013877177 -10.334388997912924 0.0
C_r 2.887902001501851 -8.98713899924807 0.0
C_s 1.8750640012142197 -7.964548998524114 0.0
C_t 2.1522499981390895 -6.6171670018958295 0.0
C_u 1.1458680021558094 -5.590125001547874 0.0
C_v 1.4278950021640144 -4.242783000133173 0.0
C_w 0.42550699763712635 -3.212855999717453 0.0
C_x 0.7109210016739967 -1.865706999815027 0.0
C_y 4.207937998461808 -15.01867000072512 0.0
C_z 4.443043998222679 -13.686408999470215 0.0
C_{ 3.3893969997627242 -12.6951819984961 0.0
C_| 3.643770997943831 -11.348766999135504 0.0
Charge=7 Atoms=2
N_a -5.328309999186019 18.367441002378516 0.0
N_b 5.307200998541634 -15.977827000028855 0.0
Charge=8 Atoms=2
O_a 4.974188001831576 -17.169057998888345 0.0
O_b 6.465698000042107 -15.55607800197925 0.0
Charge=1 Atoms=30
H_a -1.343432000965187 -1.144647999971926 0.0
H_b 1.0555990008958134 0.8233510025814174 0.0
H_c -2.0523080026003218 1.2397869979346297 0.0
H_d 0.3518830009501499 3.2013559999517542 0.0
H_e -2.7546190000092516 3.627419998937288 0.0
H_f -0.3438389993378436 5.580639002620036 0.0
H_g -3.44849799778324 6.019652999846225 0.0
H_h -1.0286230019331861 7.961137001455789 0.0
H_i -4.130647999645384 8.418664998953592 0.0
H_j -1.6975959991148413 10.342746997406726 0.0
H_k -4.7955350026208 10.82825500178896 0.0
H_l -2.3419689977180056 12.724278997928584 0.0
H_m -5.432631999789275 13.256996001963287 0.0
H_n -2.9421349978177433 15.099758999779349 0.0
H_o -6.017821999071359 15.735296998551014 0.0
H_p -3.4484359993812377 17.4811800000895 0.0
H_q -6.334902999290283 18.275814000101636 0.0
H_r -4.935636997525409 19.29587299914468 0.0
H_s 1.5708300001836668 -10.66592399738181 0.0
H_t 3.9385489991026192 -8.661134002174357 0.0
H_u 0.8236899987943447 -8.286960998756365 0.0
H_v 3.2049430012154203 -6.297746001218411 0.0
H_w 0.0927920017814842 -5.907411999871368 0.0
H_x 2.481794000103462 -3.92730299910627 0.0
H_y -0.6286399992021018 -3.5268299994451935 0.0
H_z 1.7657010002926283 -1.5531029975515345 0.0
H_{ 3.22804199921939 -15.49986499916951 0.0
H_| 5.4877840022916216 -13.352874001192463 0.0
H_} 2.347492999243608 -13.04321000167601 0.0
H_~ 4.690929998045277 -11.012431002380412 0.0


       *******************************************************************
       *********** Output from DALTON general input processing ***********
       *******************************************************************

 --------------------------------------------------------------------------------
   Overall default print level:    0
   Print level for DALTON.STAT:    1

    Parallel calculation using MPI
    AO-direct calculation (in sections where implemented)
    HERMIT 1- and 2-electron integral sections will be executed
    "Old" integral transformation used (limited to max 255 basis functions)
    Wave function sections will be executed (SIRIUS module)
    Static molecular property section will be executed (ABACUS module)
 --------------------------------------------------------------------------------


   ****************************************************************************
   *************** Output of molecule and basis set information ***************
   ****************************************************************************


    The two title cards from your ".mol" input:
    ------------------------------------------------------------------------
 1: blah                                                                    
 2: blah                                                                    
    ------------------------------------------------------------------------

  Coordinates are entered in Angstrom and converted to atomic units.
          - Conversion factor : 1 bohr = 0.52917721 A

  Atomic type no.    1
  --------------------
  Nuclear charge:   6.00000
  Number of symmetry independent centers:   28
  Number of basis sets to read;    2
  Basis set file used for this atomic type with Z =   6 :
     "/gpfs/projects/rjh/adrian/dalton/build/basis/aug-cc-pVTZ"

  Atomic type no.    2
  --------------------
  Nuclear charge:   7.00000
  Number of symmetry independent centers:    2
  Number of basis sets to read;    2
  Basis set file used for this atomic type with Z =   7 :
     "/gpfs/projects/rjh/adrian/dalton/build/basis/aug-cc-pVTZ"

  Atomic type no.    3
  --------------------
  Nuclear charge:   8.00000
  Number of symmetry independent centers:    2
  Number of basis sets to read;    2
  Basis set file used for this atomic type with Z =   8 :
     "/gpfs/projects/rjh/adrian/dalton/build/basis/aug-cc-pVTZ"

  Atomic type no.    4
  --------------------
  Nuclear charge:   1.00000
  Number of symmetry independent centers:   30
  Number of basis sets to read;    2
  Basis set file used for this atomic type with Z =   1 :
     "/gpfs/projects/rjh/adrian/dalton/build/basis/aug-cc-pVTZ"


                         SYMGRP: Point group information
                         -------------------------------

@    Point group: C1 


                                 Isotopic Masses
                                 ---------------

                           C_a        12.000000
                           C_b        12.000000
                           C_c        12.000000
                           C_d        12.000000
                           C_e        12.000000
                           C_f        12.000000
                           C_g        12.000000
                           C_h        12.000000
                           C_i        12.000000
                           C_j        12.000000
                           C_k        12.000000
                           C_l        12.000000
                           C_m        12.000000
                           C_n        12.000000
                           C_o        12.000000
                           C_p        12.000000
                           C_q        12.000000
                           C_r        12.000000
                           C_s        12.000000
                           C_t        12.000000
                           C_u        12.000000
                           C_v        12.000000
                           C_w        12.000000
                           C_x        12.000000
                           C_y        12.000000
                           C_z        12.000000
                           C_{        12.000000
                           C_|        12.000000
                           N_a        14.003074
                           N_b        14.003074
                           O_a        15.994915
                           O_b        15.994915
                           H_a         1.007825
                           H_b         1.007825
                           H_c         1.007825
                           H_d         1.007825
                           H_e         1.007825
                           H_f         1.007825
                           H_g         1.007825
                           H_h         1.007825
                           H_i         1.007825
                           H_j         1.007825
                           H_k         1.007825
                           H_l         1.007825
                           H_m         1.007825
                           H_n         1.007825
                           H_o         1.007825
                           H_p         1.007825
                           H_q         1.007825
                           H_r         1.007825
                           H_s         1.007825
                           H_t         1.007825
                           H_u         1.007825
                           H_v         1.007825
                           H_w         1.007825
                           H_x         1.007825
                           H_y         1.007825
                           H_z         1.007825
                           H_{         1.007825
                           H_|         1.007825
                           H_}         1.007825
                           H_~         1.007825

                       Total mass:   426.230728 amu
                       Natural abundance:  72.150 %

 Center-of-mass coordinates (a.u.):    0.099320   -0.294099    0.000000
 Center-of-mass coordinates (Angs):    0.052558   -0.155630    0.000000


  Atoms and basis sets
  --------------------

  Number of atom types :    4
  Total number of atoms:   62

  Basis set used is "aug-cc-pVTZ" from the basis set library.

  label    atoms   charge   prim   cont     basis
  ----------------------------------------------------------------------
  C_         28    6.0000    58    46      [11s6p3d2f|5s4p3d2f]                               
  N_          2    7.0000    58    46      [11s6p3d2f|5s4p3d2f]                               
  O_          2    8.0000    58    46      [11s6p3d2f|5s4p3d2f]                               
  H_         30    1.0000    25    23      [6s3p2d|4s3p2d]                                    
  ----------------------------------------------------------------------
  total:     62  228.0000  2606  2162
  ----------------------------------------------------------------------
  Spherical harmonic basis used.

  Threshold for neglecting AO integrals:  1.00D-12

  Max    interatomic separation is   37.7875 Angstrom (   71.4080 Bohr)
  between atoms   50 and   31, "H_r   " and "O_a   ".

  Min HX interatomic separation is    1.0081 Angstrom (    1.9050 Bohr)

  Min YX interatomic separation is    1.2329 Angstrom (    2.3298 Bohr)


  Bond distances (Angstrom):
  --------------------------

                  atom 1     atom 2       distance
                  ------     ------       --------
  bond distance:  C_b        C_a          1.377315
  bond distance:  C_c        C_b          1.436663
  bond distance:  C_d        C_c          1.377413
  bond distance:  C_e        C_d          1.436673
  bond distance:  C_f        C_e          1.377370
  bond distance:  C_g        C_f          1.436865
  bond distance:  C_h        C_g          1.377147
  bond distance:  C_i        C_h          1.437327
  bond distance:  C_j        C_i          1.376637
  bond distance:  C_k        C_j          1.438239
  bond distance:  C_l        C_k          1.375599
  bond distance:  C_m        C_l          1.439865
  bond distance:  C_n        C_m          1.373542
  bond distance:  C_o        C_n          1.441405
  bond distance:  C_p        C_o          1.369644
  bond distance:  C_r        C_q          1.373805
  bond distance:  C_s        C_r          1.439281
  bond distance:  C_t        C_s          1.375598
  bond distance:  C_u        C_t          1.437922
  bond distance:  C_v        C_u          1.376543
  bond distance:  C_w        C_v          1.437196
  bond distance:  C_x        C_a          1.436821
  bond distance:  C_x        C_w          1.377052
  bond distance:  C_z        C_y          1.352847
  bond distance:  C_{        C_z          1.446618
  bond distance:  C_|        C_q          1.441849
  bond distance:  C_|        C_{          1.370233
  bond distance:  N_a        C_p          1.368944
  bond distance:  N_b        C_y          1.458890
  bond distance:  O_a        N_b          1.236903
  bond distance:  O_b        N_b          1.232878
  bond distance:  H_a        C_a          1.099953
  bond distance:  H_b        C_b          1.100161
  bond distance:  H_c        C_c          1.099976
  bond distance:  H_d        C_d          1.100208
  bond distance:  H_e        C_e          1.099982
  bond distance:  H_f        C_f          1.100274
  bond distance:  H_g        C_g          1.099978
  bond distance:  H_h        C_h          1.100375
  bond distance:  H_i        C_i          1.099958
  bond distance:  H_j        C_j          1.100539
  bond distance:  H_k        C_k          1.099894
  bond distance:  H_l        C_l          1.100851
  bond distance:  H_m        C_m          1.099643
  bond distance:  H_n        C_n          1.101215
  bond distance:  H_o        C_o          1.098601
  bond distance:  H_p        C_p          1.097245
  bond distance:  H_q        N_a          1.010755
  bond distance:  H_r        N_a          1.008057
  bond distance:  H_s        C_q          1.099440
  bond distance:  H_t        C_r          1.100063
  bond distance:  H_u        C_s          1.099698
  bond distance:  H_v        C_t          1.100087
  bond distance:  H_w        C_u          1.099836
  bond distance:  H_x        C_v          1.100105
  bond distance:  H_y        C_w          1.099912
  bond distance:  H_z        C_x          1.100128
  bond distance:  H_{        C_y          1.091671
  bond distance:  H_|        C_z          1.096689
  bond distance:  H_}        C_{          1.098493
  bond distance:  H_~        C_|          1.099847


  Bond angles (degrees):
  ----------------------

                  atom 1     atom 2     atom 3         angle
                  ------     ------     ------         -----
  bond angle:     C_b        C_a        C_x          123.841
  bond angle:     C_b        C_a        H_a          118.528
  bond angle:     C_x        C_a        H_a          117.631
  bond angle:     C_a        C_b        C_c          123.995
  bond angle:     C_a        C_b        H_b          118.452
  bond angle:     C_c        C_b        H_b          117.553
  bond angle:     C_b        C_c        C_d          123.851
  bond angle:     C_b        C_c        H_c          117.628
  bond angle:     C_d        C_c        H_c          118.521
  bond angle:     C_c        C_d        C_e          124.036
  bond angle:     C_c        C_d        H_d          118.430
  bond angle:     C_e        C_d        H_d          117.534
  bond angle:     C_d        C_e        C_f          123.849
  bond angle:     C_d        C_e        H_e          117.627
  bond angle:     C_f        C_e        H_e          118.524
  bond angle:     C_e        C_f        C_g          124.096
  bond angle:     C_e        C_f        H_f          118.401
  bond angle:     C_g        C_f        H_f          117.503
  bond angle:     C_f        C_g        C_h          123.834
  bond angle:     C_f        C_g        H_g          117.627
  bond angle:     C_h        C_g        H_g          118.539
  bond angle:     C_g        C_h        C_i          124.187
  bond angle:     C_g        C_h        H_h          118.359
  bond angle:     C_i        C_h        H_h          117.453
  bond angle:     C_h        C_i        C_j          123.803
  bond angle:     C_h        C_i        H_i          117.626
  bond angle:     C_j        C_i        H_i          118.572
  bond angle:     C_i        C_j        C_k          124.336
  bond angle:     C_i        C_j        H_j          118.292
  bond angle:     C_k        C_j        H_j          117.373
  bond angle:     C_j        C_k        C_l          123.730
  bond angle:     C_j        C_k        H_k          117.626
  bond angle:     C_l        C_k        H_k          118.644
  bond angle:     C_k        C_l        C_m          124.619
  bond angle:     C_k        C_l        H_l          118.150
  bond angle:     C_m        C_l        H_l          117.231
  bond angle:     C_l        C_m        C_n          123.494
  bond angle:     C_l        C_m        H_m          117.660
  bond angle:     C_n        C_m        H_m          118.846
  bond angle:     C_m        C_n        C_o          125.203
  bond angle:     C_m        C_n        H_n          117.801
  bond angle:     C_o        C_n        H_n          116.996
  bond angle:     C_n        C_o        C_p          122.211
  bond angle:     C_n        C_o        H_o          118.406
  bond angle:     C_p        C_o        H_o          119.383
  bond angle:     C_o        C_p        N_a          126.188
  bond angle:     C_o        C_p        H_p          119.403
  bond angle:     N_a        C_p        H_p          114.409
  bond angle:     C_r        C_q        C_|          123.427
  bond angle:     C_r        C_q        H_s          118.834
  bond angle:     C_|        C_q        H_s          117.739
  bond angle:     C_q        C_r        C_s          123.991
  bond angle:     C_q        C_r        H_t          118.522
  bond angle:     C_s        C_r        H_t          117.487
  bond angle:     C_r        C_s        C_t          123.650
  bond angle:     C_r        C_s        H_u          117.677
  bond angle:     C_t        C_s        H_u          118.673
  bond angle:     C_s        C_t        C_u          123.957
  bond angle:     C_s        C_t        H_v          118.504
  bond angle:     C_u        C_t        H_v          117.538
  bond angle:     C_t        C_u        C_v          123.760
  bond angle:     C_t        C_u        H_w          117.651
  bond angle:     C_v        C_u        H_w          118.590
  bond angle:     C_u        C_v        C_w          123.954
  bond angle:     C_u        C_v        H_x          118.487
  bond angle:     C_w        C_v        H_x          117.559
  bond angle:     C_v        C_w        C_x          123.814
  bond angle:     C_v        C_w        H_y          117.638
  bond angle:     C_x        C_w        H_y          118.548
  bond angle:     C_a        C_x        C_w          123.968
  bond angle:     C_a        C_x        H_z          117.562
  bond angle:     C_w        C_x        H_z          118.470
  bond angle:     C_z        C_y        N_b          121.098
  bond angle:     C_z        C_y        H_{          126.162
  bond angle:     N_b        C_y        H_{          112.740
  bond angle:     C_y        C_z        C_{          123.244
  bond angle:     C_y        C_z        H_|          117.714
  bond angle:     C_{        C_z        H_|          119.043
  bond angle:     C_z        C_{        C_|          122.553
  bond angle:     C_z        C_{        H_}          118.278
  bond angle:     C_|        C_{        H_}          119.170
  bond angle:     C_q        C_|        C_{          124.012
  bond angle:     C_q        C_|        H_~          117.483
  bond angle:     C_{        C_|        H_~          118.505
  bond angle:     C_p        N_a        H_q          120.822
  bond angle:     C_p        N_a        H_r          121.051
  bond angle:     H_q        N_a        H_r          118.127
  bond angle:     C_y        N_b        O_a          115.488
  bond angle:     C_y        N_b        O_b          118.890
  bond angle:     O_a        N_b        O_b          125.622




 Principal moments of inertia (u*A**2) and principal axes
 --------------------------------------------------------

   IA     156.113231         -0.291173    0.956670    0.000000
   IB   56541.396409          0.956670    0.291173    0.000000
   IC   56697.509640          0.000000    0.000000    1.000000


 Rotational constants
 --------------------

@    The molecule is planar.

               A                   B                   C

           3237.2593              8.9382              8.9136 MHz
            0.107983            0.000298            0.000297 cm-1


@  Nuclear repulsion energy : 2066.436409399690 Hartree


                     .---------------------------------------.
                     | Starting in Integral Section (HERMIT) |
                     `---------------------------------------'



 ***************************************************************************************
 ****************** Output from **INTEGRALS input processing (HERMIT) ******************
 ***************************************************************************************


 - Using defaults, no **INTEGRALS input found

 Default print level:        1

 Calculation of one-electron Hamiltonian integrals.

 Center of mass  (bohr):      0.099320351442     -0.294098929890      0.000000000000
 Operator center (bohr):      0.000000000000      0.000000000000      0.000000000000
 Gauge origin    (bohr):      0.000000000000      0.000000000000      0.000000000000
 Dipole origin   (bohr):      0.000000000000      0.000000000000      0.000000000000


     ************************************************************************
     ************************** Output from HERINT **************************
     ************************************************************************



                      Nuclear contribution to dipole moments
                      --------------------------------------

                 au               Debye          C m (/(10**-30)

      x     -0.00000557        -0.00001416        -0.00004722
      y      0.00000189         0.00000480         0.00001602
      z      0.00000000         0.00000000         0.00000000


  Time used in ONEDRV     is       7.97 seconds
  Time used in HUCKEL     is       1.67 seconds
  Time used in OVERLAP    is       0.91 seconds
  Time used in POPOVLP    is       1.77 seconds
  Time used in R2         is       1.07 seconds
  Time used in R4         is       1.23 seconds
  Time used in DIPLEN     is       1.54 seconds
  Time used in QUADRUP    is       2.96 seconds
  Time used in KINENE     is       1.39 seconds
  Time used in GABGEN     is       8.54 seconds
  Total CPU  time used in HERMIT:  29.04 seconds
  Total wall time used in HERMIT:  29.81 seconds


                        .----------------------------------.
                        | End of Integral Section (HERMIT) |
                        `----------------------------------'



                   .--------------------------------------------.
                   | Starting in Wave Function Section (SIRIUS) |
                   `--------------------------------------------'



@ Primary orbitals are deleted during canonical orthonormalization
@   because of detected numerical linear dependence or too large coefficients.
@ Eigenvalue threshold for num. lin. dep. =  1.00D-06

@  13 MO components are deleted in symmetry    1
 Overlap eigenvalues of the deleted orbitals:
  8.41D-07  8.35D-07  8.05D-07  7.91D-07  6.87D-07
  6.70D-07  5.50D-07  4.33D-07  4.18D-07  3.68D-07
  2.19D-07  1.11D-07  3.07D-08

 Max MO coeff. of last deleted MO & limit:  3.19D+02  1.00D+03

WARNING: Orbitals have been deleted because of numerical
   linear dependence although not requested in input.

 *** Output from Huckel module :

     Using EWMO model:          T
     Using EHT  model:          F
     Number of Huckel orbitals each symmetry:  190

 EWMO - Energy Weighted Maximum Overlap - is a Huckel type method,
        which normally is better than Extended Huckel Theory.
 Reference: Linderberg and Ohrn, Propagators in Quantum Chemistry (Wiley, 1973)

 Huckel EWMO eigenvalues for symmetry :  1
          -20.684753     -20.683498     -15.677080     -15.674960     -11.359406
          -11.359388     -11.359195     -11.359128     -11.358947     -11.358817
          -11.358585     -11.357863     -11.356901     -11.355762     -11.354513
          -11.353227     -11.351984     -11.350907     -11.348641     -11.347949
          -11.347222     -11.346587     -11.346078     -11.345705     -11.345494
          -11.345479     -11.345405     -11.345374     -11.345272     -11.345267
          -11.345185     -11.345181      -1.964050      -1.792888      -1.790497
           -1.784612      -1.772821      -1.752825      -1.722704      -1.681420
           -1.629056      -1.566796      -1.497096      -1.446466      -1.415689
           -1.337896      -1.257016      -1.212071      -1.194734      -1.176047
           -1.165786      -1.128079      -1.099471      -1.081406      -1.038259
           -1.013446      -0.985710      -0.944104      -0.932695      -0.882137
           -0.879525      -0.852027      -0.836630      -0.827596      -0.811190
           -0.784661      -0.770871      -0.749402      -0.749099      -0.739617
           -0.721710      -0.696292      -0.689310      -0.675369      -0.665207
           -0.653657      -0.644933      -0.624632      -0.616108      -0.611003
           -0.594762      -0.586055      -0.576994      -0.571834      -0.558907
           -0.540404      -0.539149      -0.538046      -0.522327      -0.515940
           -0.501952      -0.501428      -0.497126      -0.494654      -0.493104
           -0.489649      -0.487983      -0.483857      -0.482895      -0.478115
           -0.477885      -0.474366      -0.474229      -0.466493      -0.464847
           -0.436900      -0.433408      -0.410904      -0.403187      -0.389045
           -0.376158      -0.372526      -0.362199      -0.352624      -0.335966
           -0.307182      -0.288253      -0.271087      -0.255993      -0.242942
           -0.231828      -0.229151      -0.222511      -0.214829      -0.208612
           -0.203692      -0.200885      -0.199908      -0.197120      -0.195212
           -0.194101      -0.190600      -0.166732      -0.142708      -0.139031
           -0.135586      -0.133284      -0.131890      -0.131595      -0.131098
           -0.130468      -0.130219      -0.129870      -0.129786      -0.129301
           -0.129117      -0.129014      -0.128246      -0.128020      -0.127441
           -0.127026      -0.127006      -0.126505      -0.126190      -0.125967
           -0.125517      -0.125036      -0.124512      -0.124283      -0.123800
           -0.123613      -0.123193      -0.112844      -0.112230      -0.109492
           -0.108476      -0.105255      -0.104279      -0.101332      -0.100014
           -0.097422      -0.096028      -0.094258      -0.092742      -0.091519
           -0.090281      -0.089118      -0.088421      -0.087208      -0.086918
           -0.085847      -0.085677      -0.085017      -0.084548      -0.083457
           -0.082389      -0.081352      -0.080414      -0.079691      -0.079331

 **********************************************************************
 *SIRIUS* a direct, restricted step, second order MCSCF program       *
 **********************************************************************

 
     Date and time (Linux)  : Fri May  2 05:17:53 2025
     Host name              : xm046                                   

 Title lines from ".mol" input file:
     blah                                                                    
     blah                                                                    

 Print level on unit LUPRI =   2 is   0
 Print level on unit LUW4  =   2 is   5

@    Restricted, closed shell Hartree-Fock calculation.
 Fock matrices are calculated directly and in parallel without use of integrals on disk.

 Initial molecular orbitals are obtained according to
 ".MOSTART EWMO  " input option

     Wave function specification
     ============================
@    Wave function type        --- HF ---
@    Number of closed shell electrons         228
@    Number of electrons in active shells       0
@    Total charge of the molecule               0

@    Spin multiplicity and 2 M_S                1         0
@    Total number of symmetries                 1 (point group: C1 )
@    Reference state symmetry                   1 (irrep name : A  )

     Orbital specifications
     ======================
@    Abelian symmetry species          All |    1
@                                          |  A  
                                       --- |  ---
@    Occupied SCF orbitals             114 |  114
@    Secondary orbitals               2035 | 2035
@    Total number of orbitals         2149 | 2149
@    Number of basis functions        2162 | 2162

     Optimization information
     ========================
@    Number of configurations                 1
@    Number of orbital rotations         231990
     ------------------------------------------
@    Total number of variables           231991

     Maximum number of Fock   iterations      0
     Maximum number of DIIS   iterations     60
     Maximum number of QC-SCF iterations     60
     Threshold for SCF convergence     1.00D-05


 ***********************************************
 ***** DIIS acceleration of SCF iterations *****
 ***********************************************

 C1-DIIS algorithm; max error vectors =    8

 Iter      Total energy        Error norm    Delta(E)  DIIS dim.
 -----------------------------------------------------------------------------
   1  Screening settings (-IFTHRS, JTDIIS, DIFDEN, times)  -10    1    T  2.70D+02  2.72D+02
@  1    -1331.57225153        8.70523D+00   -1.33D+03    1
      Virial theorem: -V/T =      2.012570
@    MULPOP   C_a     0.00; C_b     0.04; C_c    -0.02; C_d     0.04; C_e    -0.01; C_f     0.06; C_g     0.01; C_h     0.06; C_i    -0.02; C_j     0.05; 
@             C_k    -0.06; C_l     0.01; C_m    -0.15; C_n    -0.07; C_o    -0.07; C_p     0.32; C_q    -0.01; C_r     0.04; C_s     0.01; C_t     0.07; 
@             C_u     0.03; C_v     0.06; C_w     0.03; C_x     0.04; C_y     0.18; C_z    -0.04; C_{    -0.06; C_|    -0.03; N_a    -0.71; N_b     0.62; 
@    MULPOP    dipole moment & components:     38.0384;      -13.3924     35.6029      0.0000
   1  Level shift: doubly occupied orbital energies shifted by -2.00D-01
 -----------------------------------------------------------------------------
   2  Screening settings (-IFTHRS, JTDIIS, DIFDEN, times)  -10    2    T  2.77D+02  2.80D+02
@  2    -1335.90530114        3.15160D+00   -4.33D+00    2
      Virial theorem: -V/T =      2.000302
@    MULPOP   C_a    -0.04; C_b    -0.06; C_c    -0.06; C_d    -0.03; C_e    -0.08; C_f    -0.05; C_g    -0.08; C_h    -0.10; C_i    -0.10; C_j    -0.04; 
@             C_k    -0.06; C_l     0.04; C_m     0.01; C_n     0.01; C_o     0.17; C_p    -0.52; C_q    -0.02; C_r    -0.06; C_s    -0.10; C_t    -0.09; 
@             C_u    -0.12; C_v    -0.06; C_w    -0.09; C_x    -0.07; C_y    -0.88; C_z     0.24; C_{    -0.11; C_|     0.13; N_a    -0.55; N_b     0.27; 
@    MULPOP    dipole moment & components:     13.0483;       -3.6629     12.5236      0.0000
   2  Level shift: doubly occupied orbital energies shifted by -1.00D-01
 -----------------------------------------------------------------------------
   3  Screening settings (-IFTHRS, JTDIIS, DIFDEN, times)  -10    3    T  2.62D+02  2.65D+02
@  3    -1336.42643830        1.15821D+00   -5.21D-01    3
      Virial theorem: -V/T =      2.001966
@    MULPOP   C_a    -0.08; C_b    -0.08; C_c    -0.09; C_d    -0.07; C_e    -0.12; C_f    -0.09; C_g    -0.12; C_h    -0.12; C_i    -0.14; C_j    -0.09; 
@             C_k    -0.10; C_l     0.02; C_m    -0.07; C_n     0.05; C_o     0.03; C_p    -0.41; C_q    -0.06; C_r    -0.07; C_s    -0.12; C_t    -0.11; 
@             C_u    -0.16; C_v    -0.09; C_w    -0.12; C_x    -0.09; C_y    -0.61; C_z     0.24; C_{    -0.09; C_|     0.12; N_a    -0.54; N_b     0.95; 
@    MULPOP    dipole moment & components:     11.0898;       -3.2824     10.5929      0.0000
   3  Level shift: doubly occupied orbital energies shifted by -5.00D-02
 -----------------------------------------------------------------------------
   4  Screening settings (-IFTHRS, JTDIIS, DIFDEN, times)  -10    4    T  2.54D+02  2.55D+02
@  4    -1336.50954831        3.38227D-01   -8.31D-02    4
      Virial theorem: -V/T =      2.003465
@    MULPOP   C_a    -0.09; C_b    -0.07; C_c    -0.10; C_d    -0.07; C_e    -0.12; C_f    -0.09; C_g    -0.13; C_h    -0.13; C_i    -0.15; C_j    -0.09; 
@             C_k    -0.11; C_l     0.02; C_m    -0.08; C_n     0.05; C_o     0.00; C_p    -0.39; C_q    -0.08; C_r    -0.06; C_s    -0.13; C_t    -0.11; 
@             C_u    -0.16; C_v    -0.08; C_w    -0.13; C_x    -0.08; C_y    -0.68; C_z     0.21; C_{    -0.11; C_|     0.13; N_a    -0.55; N_b     0.73; 
@    MULPOP    dipole moment & components:      9.4408;       -2.6234      9.0690      0.0000
   4  Level shift: doubly occupied orbital energies shifted by -2.50D-02
 -----------------------------------------------------------------------------
   5  Screening settings (-IFTHRS, JTDIIS, DIFDEN, times)  -14    5    F  3.45D+02  3.46D+02
@  5    -1336.52690727        1.42663D-01   -1.74D-02    5
      Virial theorem: -V/T =      2.002755
@    MULPOP   C_a    -0.10; C_b    -0.08; C_c    -0.11; C_d    -0.07; C_e    -0.13; C_f    -0.10; C_g    -0.14; C_h    -0.14; C_i    -0.16; C_j    -0.10; 
@             C_k    -0.12; C_l     0.01; C_m    -0.09; C_n     0.05; C_o    -0.01; C_p    -0.40; C_q    -0.09; C_r    -0.08; C_s    -0.14; C_t    -0.12; 
@             C_u    -0.18; C_v    -0.10; C_w    -0.14; C_x    -0.09; C_y    -0.67; C_z     0.20; C_{    -0.12; C_|     0.11; N_a    -0.57; N_b     0.79; 
@    MULPOP    dipole moment & components:      8.4913;       -2.1869      8.2048      0.0000
   5  Level shift: doubly occupied orbital energies shifted by -1.25D-02
 -----------------------------------------------------------------------------
   6  Screening settings (-IFTHRS, JTDIIS, DIFDEN, times)  -14    6    T  3.18D+02  3.20D+02
@  6    -1336.53224737        7.64466D-02   -5.34D-03    6
      Virial theorem: -V/T =      2.002635
@    MULPOP   C_a    -0.10; C_b    -0.08; C_c    -0.11; C_d    -0.08; C_e    -0.13; C_f    -0.10; C_g    -0.14; C_h    -0.14; C_i    -0.16; C_j    -0.10; 
@             C_k    -0.12; C_l     0.01; C_m    -0.10; C_n     0.04; C_o    -0.01; C_p    -0.40; C_q    -0.09; C_r    -0.08; C_s    -0.14; C_t    -0.12; 
@             C_u    -0.18; C_v    -0.10; C_w    -0.14; C_x    -0.09; C_y    -0.68; C_z     0.21; C_{    -0.12; C_|     0.12; N_a    -0.57; N_b     0.77; 
@    MULPOP    dipole moment & components:      7.9233;       -2.0286      7.6592      0.0000
   6  Level shift: doubly occupied orbital energies shifted by -1.25D-02
 -----------------------------------------------------------------------------
   7  Screening settings (-IFTHRS, JTDIIS, DIFDEN, times)  -14    7    T  3.13D+02  3.15D+02
@  7    -1336.53413126        3.72016D-02   -1.88D-03    7
      Virial theorem: -V/T =      2.002666
@    MULPOP   C_a    -0.10; C_b    -0.08; C_c    -0.11; C_d    -0.08; C_e    -0.13; C_f    -0.10; C_g    -0.14; C_h    -0.14; C_i    -0.16; C_j    -0.10; 
@             C_k    -0.12; C_l     0.01; C_m    -0.10; C_n     0.04; C_o    -0.01; C_p    -0.41; C_q    -0.09; C_r    -0.08; C_s    -0.14; C_t    -0.12; 
@             C_u    -0.18; C_v    -0.10; C_w    -0.14; C_x    -0.09; C_y    -0.68; C_z     0.20; C_{    -0.12; C_|     0.12; N_a    -0.58; N_b     0.77; 
@    MULPOP    dipole moment & components:      7.5501;       -1.8694      7.3150      0.0000
 -----------------------------------------------------------------------------
   8  Screening settings (-IFTHRS, JTDIIS, DIFDEN, times)  -14    8    T  3.09D+02  3.10D+02
@  8    -1336.53462799        1.65333D-02   -4.97D-04    8
      Virial theorem: -V/T =      2.002658
@    MULPOP   C_a    -0.10; C_b    -0.08; C_c    -0.11; C_d    -0.08; C_e    -0.13; C_f    -0.10; C_g    -0.14; C_h    -0.14; C_i    -0.16; C_j    -0.10; 
@             C_k    -0.12; C_l     0.01; C_m    -0.10; C_n     0.04; C_o    -0.01; C_p    -0.41; C_q    -0.09; C_r    -0.08; C_s    -0.14; C_t    -0.12; 
@             C_u    -0.18; C_v    -0.10; C_w    -0.14; C_x    -0.09; C_y    -0.68; C_z     0.20; C_{    -0.12; C_|     0.12; N_a    -0.58; N_b     0.78; 
@    MULPOP    dipole moment & components:      7.2081;       -1.7908      6.9821      0.0000
 -----------------------------------------------------------------------------
   9  Screening settings (-IFTHRS, JTDIIS, DIFDEN, times)  -14    9    T  3.00D+02  3.02D+02
@  9    -1336.53469609        6.68700D-03   -6.81D-05    8
      Virial theorem: -V/T =      2.002650
@    MULPOP   C_a    -0.10; C_b    -0.08; C_c    -0.11; C_d    -0.08; C_e    -0.13; C_f    -0.10; C_g    -0.14; C_h    -0.14; C_i    -0.16; C_j    -0.11; 
@             C_k    -0.12; C_l     0.01; C_m    -0.09; C_n     0.04; C_o    -0.01; C_p    -0.41; C_q    -0.09; C_r    -0.08; C_s    -0.14; C_t    -0.12; 
@             C_u    -0.17; C_v    -0.10; C_w    -0.14; C_x    -0.09; C_y    -0.68; C_z     0.20; C_{    -0.12; C_|     0.12; N_a    -0.58; N_b     0.78; 
@    MULPOP    dipole moment & components:      7.0532;       -1.7564      6.8310      0.0000
 -----------------------------------------------------------------------------
  10  Screening settings (-IFTHRS, JTDIIS, DIFDEN, times)  -14   10    T  2.96D+02  2.98D+02
@ 10    -1336.53471567        4.12200D-03   -1.96D-05    8
      Virial theorem: -V/T =      2.002650
@    MULPOP   C_a    -0.10; C_b    -0.08; C_c    -0.11; C_d    -0.08; C_e    -0.13; C_f    -0.11; C_g    -0.14; C_h    -0.14; C_i    -0.16; C_j    -0.11; 
@             C_k    -0.12; C_l     0.01; C_m    -0.09; C_n     0.04; C_o    -0.01; C_p    -0.41; C_q    -0.09; C_r    -0.08; C_s    -0.14; C_t    -0.12; 
@             C_u    -0.17; C_v    -0.10; C_w    -0.14; C_x    -0.10; C_y    -0.68; C_z     0.20; C_{    -0.12; C_|     0.12; N_a    -0.58; N_b     0.78; 
@    MULPOP    dipole moment & components:      6.9256;       -1.7424      6.7028      0.0000
 -----------------------------------------------------------------------------
  11  Screening settings (-IFTHRS, JTDIIS, DIFDEN, times)  -14   11    T  2.91D+02  2.93D+02
@ 11    -1336.53472478        2.63815D-03   -9.11D-06    8
      Virial theorem: -V/T =      2.002651
@    MULPOP   C_a    -0.10; C_b    -0.08; C_c    -0.11; C_d    -0.08; C_e    -0.13; C_f    -0.11; C_g    -0.14; C_h    -0.14; C_i    -0.16; C_j    -0.11; 
@             C_k    -0.12; C_l     0.01; C_m    -0.09; C_n     0.04; C_o    -0.01; C_p    -0.41; C_q    -0.09; C_r    -0.08; C_s    -0.14; C_t    -0.12; 
@             C_u    -0.17; C_v    -0.10; C_w    -0.14; C_x    -0.10; C_y    -0.68; C_z     0.20; C_{    -0.12; C_|     0.12; N_a    -0.58; N_b     0.78; 
@    MULPOP    dipole moment & components:      6.8235;       -1.7326      6.5999      0.0000
 -----------------------------------------------------------------------------
  12  Screening settings (-IFTHRS, JTDIIS, DIFDEN, times)  -14   12    T  2.90D+02  2.91D+02
@ 12    -1336.53472930        1.03029D-03   -4.53D-06    8
      Virial theorem: -V/T =      2.002650
@    MULPOP   C_a    -0.10; C_b    -0.09; C_c    -0.11; C_d    -0.08; C_e    -0.13; C_f    -0.11; C_g    -0.14; C_h    -0.14; C_i    -0.16; C_j    -0.11; 
@             C_k    -0.12; C_l     0.01; C_m    -0.09; C_n     0.04; C_o    -0.01; C_p    -0.41; C_q    -0.09; C_r    -0.08; C_s    -0.14; C_t    -0.12; 
@             C_u    -0.17; C_v    -0.10; C_w    -0.14; C_x    -0.10; C_y    -0.68; C_z     0.20; C_{    -0.12; C_|     0.12; N_a    -0.58; N_b     0.78; 
@    MULPOP    dipole moment & components:      6.7225;       -1.7238      6.4977      0.0000
 -----------------------------------------------------------------------------
  13  Screening settings (-IFTHRS, JTDIIS, DIFDEN, times)  -14   13    T  2.84D+02  2.86D+02
@ 13    -1336.53472996        4.38474D-04   -6.54D-07    8
      Virial theorem: -V/T =      2.002650
@    MULPOP   C_a    -0.10; C_b    -0.09; C_c    -0.11; C_d    -0.08; C_e    -0.13; C_f    -0.11; C_g    -0.14; C_h    -0.14; C_i    -0.16; C_j    -0.11; 
@             C_k    -0.12; C_l     0.01; C_m    -0.09; C_n     0.04; C_o    -0.01; C_p    -0.41; C_q    -0.09; C_r    -0.08; C_s    -0.14; C_t    -0.12; 
@             C_u    -0.17; C_v    -0.10; C_w    -0.14; C_x    -0.10; C_y    -0.68; C_z     0.20; C_{    -0.12; C_|     0.12; N_a    -0.58; N_b     0.78; 
@    MULPOP    dipole moment & components:      6.6813;       -1.7204      6.4560      0.0000
 -----------------------------------------------------------------------------
  14  Screening settings (-IFTHRS, JTDIIS, DIFDEN, times)  -14   14    T  2.72D+02  2.74D+02
@ 14    -1336.53473002        2.20800D-04   -6.22D-08    8
      Virial theorem: -V/T =      2.002650
@    MULPOP   C_a    -0.10; C_b    -0.09; C_c    -0.11; C_d    -0.08; C_e    -0.13; C_f    -0.11; C_g    -0.14; C_h    -0.14; C_i    -0.16; C_j    -0.11; 
@             C_k    -0.12; C_l     0.01; C_m    -0.09; C_n     0.04; C_o    -0.01; C_p    -0.41; C_q    -0.09; C_r    -0.08; C_s    -0.14; C_t    -0.12; 
@             C_u    -0.17; C_v    -0.10; C_w    -0.14; C_x    -0.10; C_y    -0.68; C_z     0.20; C_{    -0.12; C_|     0.12; N_a    -0.58; N_b     0.78; 
@    MULPOP    dipole moment & components:      6.6719;       -1.7196      6.4465      0.0000
 -----------------------------------------------------------------------------
  15  Screening settings (-IFTHRS, JTDIIS, DIFDEN, times)  -14   15    T  2.66D+02  2.67D+02
@ 15    -1336.53473003        1.02940D-04   -1.33D-08    8
      Virial theorem: -V/T =      2.002650
@    MULPOP   C_a    -0.10; C_b    -0.09; C_c    -0.11; C_d    -0.08; C_e    -0.13; C_f    -0.11; C_g    -0.14; C_h    -0.14; C_i    -0.16; C_j    -0.11; 
@             C_k    -0.12; C_l     0.01; C_m    -0.09; C_n     0.04; C_o    -0.01; C_p    -0.41; C_q    -0.09; C_r    -0.08; C_s    -0.14; C_t    -0.12; 
@             C_u    -0.17; C_v    -0.10; C_w    -0.14; C_x    -0.10; C_y    -0.68; C_z     0.20; C_{    -0.12; C_|     0.12; N_a    -0.58; N_b     0.78; 
@    MULPOP    dipole moment & components:      6.6680;       -1.7193      6.4426      0.0000
 -----------------------------------------------------------------------------
  16  Screening settings (-IFTHRS, JTDIIS, DIFDEN, times)  -14   16    T  2.56D+02  2.57D+02
@ 16    -1336.53473003        4.69656D-05   -1.92D-09    8
      Virial theorem: -V/T =      2.002650
@    MULPOP   C_a    -0.10; C_b    -0.09; C_c    -0.11; C_d    -0.08; C_e    -0.13; C_f    -0.11; C_g    -0.14; C_h    -0.14; C_i    -0.16; C_j    -0.11; 
@             C_k    -0.12; C_l     0.01; C_m    -0.09; C_n     0.04; C_o    -0.01; C_p    -0.41; C_q    -0.09; C_r    -0.08; C_s    -0.14; C_t    -0.12; 
@             C_u    -0.17; C_v    -0.10; C_w    -0.14; C_x    -0.10; C_y    -0.68; C_z     0.20; C_{    -0.12; C_|     0.12; N_a    -0.58; N_b     0.78; 
@    MULPOP    dipole moment & components:      6.6673;       -1.7192      6.4419      0.0000
 -----------------------------------------------------------------------------
  17  Screening settings (-IFTHRS, JTDIIS, DIFDEN, times)  -14   17    T  2.53D+02  2.54D+02
@ 17    -1336.53473004        3.18561D-05   -7.03D-10    8
      Virial theorem: -V/T =      2.002650
@    MULPOP   C_a    -0.10; C_b    -0.09; C_c    -0.11; C_d    -0.08; C_e    -0.13; C_f    -0.11; C_g    -0.14; C_h    -0.14; C_i    -0.16; C_j    -0.11; 
@             C_k    -0.12; C_l     0.01; C_m    -0.09; C_n     0.04; C_o    -0.01; C_p    -0.41; C_q    -0.09; C_r    -0.08; C_s    -0.14; C_t    -0.12; 
@             C_u    -0.17; C_v    -0.10; C_w    -0.14; C_x    -0.10; C_y    -0.68; C_z     0.20; C_{    -0.12; C_|     0.12; N_a    -0.58; N_b     0.78; 
@    MULPOP    dipole moment & components:      6.6670;       -1.7191      6.4415      0.0000
 -----------------------------------------------------------------------------
  18  Screening settings (-IFTHRS, JTDIIS, DIFDEN, times)  -14   18    T  2.51D+02  2.53D+02
@ 18    -1336.53473004        1.45529D-05   -2.56D-10    8
      Virial theorem: -V/T =      2.002650
@    MULPOP   C_a    -0.10; C_b    -0.09; C_c    -0.11; C_d    -0.08; C_e    -0.13; C_f    -0.11; C_g    -0.14; C_h    -0.14; C_i    -0.16; C_j    -0.11; 
@             C_k    -0.12; C_l     0.01; C_m    -0.09; C_n     0.04; C_o    -0.01; C_p    -0.41; C_q    -0.09; C_r    -0.08; C_s    -0.14; C_t    -0.12; 
@             C_u    -0.17; C_v    -0.10; C_w    -0.14; C_x    -0.10; C_y    -0.68; C_z     0.20; C_{    -0.12; C_|     0.12; N_a    -0.58; N_b     0.78; 
@    MULPOP    dipole moment & components:      6.6667;       -1.7191      6.4413      0.0000
 -----------------------------------------------------------------------------
  19  Screening settings (-IFTHRS, JTDIIS, DIFDEN, times)  -14   19    T  2.51D+02  2.53D+02
@ 19    -1336.53473004        6.47887D-06   -5.59D-11    8

@ *** DIIS converged in  19 iterations !
@     Converged SCF energy, gradient:  -1336.534730035798    6.48D-06
    - total time used in SIRFCK :              0.00 seconds


 *** SCF orbital energy analysis ***

 Only the 20 lowest virtual orbital energies printed in each symmetry.

 Number of electrons :  228
 Orbital occupations :  114

 Sym       Hartree-Fock orbital energies

1 A     -20.58848553   -20.58559555   -15.83875256   -15.59066515   -11.30049097
        -11.29070272   -11.28913999   -11.27947262   -11.27150649   -11.26574257
        -11.26128481   -11.26114091   -11.25770588   -11.25700912   -11.25473249
        -11.25455046   -11.25217426   -11.25215457   -11.25017234   -11.24989727
        -11.24984954   -11.24782913   -11.24758222   -11.24603907   -11.24525758
        -11.24521579   -11.24275705   -11.23992622   -11.23656354   -11.23243490
        -11.22770867   -11.22529282    -1.57877834    -1.37671339    -1.23549243
         -1.14463018    -1.13053151    -1.12215310    -1.11486721    -1.10695229
         -1.09715129    -1.08516833    -1.07113029    -1.05516668    -1.03738142
         -1.01787288    -0.99675006    -0.97417143    -0.95090214    -0.93563871
         -0.89339326    -0.86797692    -0.84260449    -0.81883831    -0.79928954
         -0.78736811    -0.78301393    -0.77540785    -0.77026110    -0.76665404
         -0.76039994    -0.75778275    -0.74858330    -0.74684242    -0.73584443
         -0.71540567    -0.71246487    -0.69657327    -0.67882296    -0.67555245
         -0.67165280    -0.65804794    -0.65464974    -0.64224254    -0.63326754
         -0.62530213    -0.61373940    -0.60371603    -0.60038986    -0.58412454
         -0.58012178    -0.57065490    -0.55965197    -0.55813904    -0.54833980
         -0.54191772    -0.53925208    -0.53168080    -0.52761564    -0.52529805
         -0.52322616    -0.51998975    -0.51522601    -0.51080294    -0.50638403
         -0.50184881    -0.50075966    -0.49543927    -0.48951000    -0.48128241
         -0.48055559    -0.47893161    -0.46997030    -0.45643798    -0.44020578
         -0.43934187    -0.42017378    -0.39762295    -0.37222964    -0.34417037
         -0.31382006    -0.28199501    -0.25038207    -0.22149242     0.00169132
          0.01646609     0.02253983     0.02449908     0.02504223     0.02801279
          0.02839456     0.02985628     0.03217351     0.03404775     0.03660498
          0.04072792     0.04359256     0.04845197     0.05167074     0.05707038
          0.06046315     0.06111684     0.06630547     0.07172227

    E(LUMO) :     0.00169132 au (symmetry 1)
  - E(HOMO) :    -0.22149242 au (symmetry 1)
  ------------------------------------------
    gap     :     0.22318374 au

 --- Writing SIRIFC interface file

 CPU and wall time for SCF :    6907.763    6953.563


                       .-----------------------------------.
                       | --- Final results from SIRIUS --- |
                       `-----------------------------------'


@    Spin multiplicity:           1
@    Spatial symmetry:            1 ( irrep  A   in C1  )
@    Total charge of molecule:    0

@    Final HF energy:           -1336.534730035798                 
@    Nuclear repulsion:          2066.436409399690
@    Electronic energy:         -3402.971139435488

@    Final gradient norm:           0.000006478868

 
     Date and time (Linux)  : Fri May  2 07:14:08 2025
     Host name              : xm046                                   

File label for MO orbitals:   2May25   FOCKDIIS

 (Only coefficients > 0.0100 are printed.)

 Molecular orbitals for symmetry species 1  (A  )
 ------------------------------------------------

    Orbital       105      106      107      108      109      110      111
   8 C_a :2pz    0.0421  -0.0269  -0.2087   0.0406   0.1962  -0.1074   0.1686
  14 C_a :2pz    0.0029  -0.0022  -0.0017  -0.0054   0.0067   0.0014   0.0107
  17 C_a :2pz    0.0024   0.0003  -0.0053   0.0004   0.0087  -0.0053   0.0122
  24 C_a :3d1-   0.0059  -0.0053  -0.0052  -0.0093   0.0101   0.0076   0.0149
  54 C_b :2pz    0.1087  -0.0916  -0.1708  -0.0918   0.1955   0.0430   0.2062
  63 C_b :2pz    0.0011  -0.0027  -0.0045  -0.0020   0.0080   0.0016   0.0156
  70 C_b :3d1-   0.0012  -0.0016   0.0096  -0.0075  -0.0100   0.0119  -0.0099
 100 C_c :2pz    0.1546  -0.1420  -0.0082  -0.2107  -0.0004   0.2123  -0.0262
 109 C_c :2pz    0.0026  -0.0033   0.0004  -0.0068  -0.0012   0.0114  -0.0024
 116 C_c :3d1-   0.0035  -0.0036   0.0086  -0.0060  -0.0119   0.0063  -0.0145
 146 C_d :2pz    0.1332  -0.1274   0.1080  -0.1691  -0.1347   0.1459  -0.1588
 155 C_d :2pz    0.0036  -0.0019   0.0020  -0.0056  -0.0046   0.0082  -0.0117
 162 C_d :3d1-  -0.0058   0.0052   0.0052   0.0109  -0.0055  -0.0148  -0.0027
 192 C_e :2pz    0.0429  -0.0485   0.2106   0.0250  -0.1988  -0.1238  -0.1341
 208 C_e :3d1-  -0.0038   0.0033   0.0060   0.0109  -0.0015  -0.0146   0.0055
 238 C_f :2pz   -0.0340   0.0226   0.1871   0.1445  -0.1017  -0.2035   0.0157
 247 C_f :2pz   -0.0009  -0.0003   0.0047   0.0037  -0.0048  -0.0105   0.0012
 254 C_f :3d1-  -0.0044   0.0044  -0.0088   0.0040   0.0139   0.0040   0.0138
 284 C_g :2pz   -0.1308   0.1157   0.0421   0.2070   0.1381  -0.0832   0.2144
 293 C_g :2pz   -0.0027   0.0028   0.0002   0.0059   0.0060  -0.0037   0.0147
 300 C_g :3d1-  -0.0058   0.0055  -0.0074   0.0028   0.0129   0.0092   0.0068
 330 C_h :2pz   -0.1562   0.1427  -0.0767   0.1331   0.2064   0.0694   0.1391
 346 C_h :3d1-   0.0029  -0.0024  -0.0067  -0.0120  -0.0039   0.0106  -0.0164
 376 C_i :2pz   -0.1297   0.1230  -0.2053  -0.0745   0.1110   0.2135  -0.1596
 382 C_i :2pz    0.0004  -0.0003  -0.0032  -0.0065  -0.0029   0.0062  -0.0108
 385 C_i :2pz   -0.0026   0.0020  -0.0049  -0.0027   0.0038   0.0109  -0.0109
 392 C_i :3d1-  -0.0003   0.0005  -0.0075  -0.0115  -0.0070   0.0048  -0.0149
 397 C_i :3d1-  -0.0109   0.0099  -0.0019   0.0028   0.0027   0.0005  -0.0012
 422 C_j :2pz   -0.0714   0.0708  -0.2066  -0.1764  -0.0317   0.1337  -0.2073
 431 C_j :2pz   -0.0017   0.0016  -0.0052  -0.0051  -0.0009   0.0067  -0.0135
 438 C_j :3d1-   0.0059  -0.0055   0.0070  -0.0016  -0.0116  -0.0152   0.0085
 443 C_j :3d1-  -0.0132   0.0119  -0.0054   0.0012   0.0023  -0.0017   0.0038
 468 C_k :2pz    0.0404  -0.0324  -0.0950  -0.1964  -0.2113  -0.1341  -0.0017
 484 C_k :3d1-   0.0050  -0.0046   0.0049  -0.0008  -0.0085  -0.0142   0.0135
 489 C_k :3d1-  -0.0152   0.0140  -0.0153  -0.0093  -0.0042  -0.0026   0.0014
 514 C_l :2pz    0.1060  -0.0942   0.0223  -0.1017  -0.1886  -0.2053   0.1403
 530 C_l :3d1-   0.0011  -0.0013   0.0081   0.0120   0.0109   0.0043   0.0055
 535 C_l :3d1-  -0.0144   0.0133  -0.0163  -0.0108  -0.0042  -0.0003  -0.0009
 560 C_m :2pz    0.1633  -0.1497   0.1817   0.1087   0.0143  -0.0843   0.1672
 569 C_m :2pz    0.0034  -0.0034   0.0049   0.0038   0.0008  -0.0050   0.0136
 576 C_m :3d1-   0.0033  -0.0031   0.0077   0.0103   0.0110   0.0085  -0.0025
 581 C_m :3d1-  -0.0071   0.0068  -0.0117  -0.0115  -0.0089  -0.0066   0.0048
 606 C_n :2pz    0.1527  -0.1411   0.2133   0.1921   0.1435   0.0706   0.0178
 622 C_n :3d1-  -0.0059   0.0054  -0.0057  -0.0014   0.0044   0.0105  -0.0155
 627 C_n :3d1-  -0.0051   0.0049  -0.0101  -0.0117  -0.0109  -0.0085   0.0041
 652 C_o :2pz    0.0822  -0.0768   0.1475   0.1796   0.2058   0.2231  -0.2284
 658 C_o :2pz   -0.0010   0.0009   0.0002   0.0032   0.0074   0.0122  -0.0163
 661 C_o :2pz    0.0014  -0.0013   0.0035   0.0057   0.0088   0.0129  -0.0179
 698 C_p :2pz   -0.0022   0.0013   0.0203   0.0477   0.0781   0.1098  -0.1399
 714 C_p :3d1-  -0.0076   0.0071  -0.0131  -0.0155  -0.0176  -0.0190   0.0196
 719 C_p :3d1-  -0.0013   0.0013  -0.0040  -0.0061  -0.0079  -0.0094   0.0103
 744 C_q :2pz    0.1265  -0.1074  -0.2027   0.1815  -0.0994  -0.0246  -0.1501
 750 C_q :2pz   -0.0015  -0.0071  -0.0033   0.0009   0.0026  -0.0073  -0.0125
 753 C_q :2pz    0.0054   0.0001  -0.0056   0.0062  -0.0042  -0.0015  -0.0119
 760 C_q :3d1-   0.0057  -0.0060  -0.0059   0.0001   0.0072  -0.0133  -0.0156
 790 C_r :2pz    0.1443  -0.1320  -0.1686   0.0796   0.0419  -0.1498  -0.2015
 799 C_r :2pz    0.0080   0.0022  -0.0048   0.0034   0.0012  -0.0087  -0.0170
 806 C_r :3d1-  -0.0042   0.0026   0.0101  -0.0133   0.0115  -0.0035   0.0083
 836 C_s :2pz    0.0921  -0.0966  -0.0002  -0.1414   0.2092  -0.1528   0.0075
 852 C_s :3d1-  -0.0022   0.0012   0.0092  -0.0118   0.0070   0.0034   0.0133
 882 C_t :2pz    0.0181  -0.0318   0.1149  -0.1997   0.1591  -0.0144   0.1408
 891 C_t :2pz   -0.0014  -0.0031   0.0023  -0.0060   0.0067  -0.0008   0.0112
 898 C_t :3d1-  -0.0064   0.0062   0.0051   0.0039  -0.0131   0.0144   0.0040
 928 C_u :2pz   -0.0995   0.0801   0.2057  -0.1152  -0.0802   0.2087   0.1392
 937 C_u :2pz    0.0006   0.0054   0.0054  -0.0031  -0.0043   0.0117   0.0090
 944 C_u :3d1-  -0.0066   0.0060   0.0051   0.0056  -0.0134   0.0093  -0.0045
 974 C_v :2pz   -0.1414   0.1253   0.1637   0.0153  -0.1824   0.1730  -0.0062
 990 C_v :3d1-   0.0016  -0.0008  -0.0099   0.0108   0.0000  -0.0138  -0.0142
1020 C_w :2pz   -0.1317   0.1274  -0.0063   0.1938  -0.1458  -0.0907  -0.2128
1029 C_w :2pz   -0.0048   0.0004  -0.0009   0.0067  -0.0057  -0.0055  -0.0148
1036 C_w :3d1-  -0.0006   0.0012  -0.0091   0.0091   0.0043  -0.0148  -0.0070
1066 C_x :2pz   -0.0757   0.0805  -0.1203   0.1975  -0.0120  -0.1906  -0.1360
1075 C_x :2pz   -0.0012   0.0028  -0.0024   0.0063  -0.0015  -0.0100  -0.0107
1082 C_x :3d1-   0.0066  -0.0061  -0.0046  -0.0086   0.0130   0.0015   0.0167
1112 C_y :2pz   -0.1239   0.1349   0.2019  -0.2163   0.2243  -0.2229  -0.2080
1118 C_y :2pz   -0.0083  -0.0045   0.0041  -0.0063   0.0082  -0.0104  -0.0119
1121 C_y :2pz   -0.0137  -0.0083   0.0053  -0.0067   0.0084  -0.0103  -0.0123
1133 C_y :3d1-  -0.0251  -0.0146   0.0092  -0.0107   0.0111  -0.0108  -0.0095
1135 C_y :3d1+  -0.0092  -0.0124  -0.0012   0.0002   0.0001  -0.0000   0.0003
1158 C_z :2pz   -0.1313   0.1286   0.1796  -0.1651   0.1411  -0.1090  -0.0723
1164 C_z :2pz    0.0230   0.0188  -0.0022   0.0008   0.0011  -0.0024  -0.0026
1167 C_z :2pz    0.0129   0.0189   0.0045  -0.0051   0.0059  -0.0066  -0.0069
1174 C_z :3d1-   0.0039  -0.0047  -0.0089   0.0119  -0.0149   0.0172   0.0181
1204 C_{ :2pz   -0.0598   0.0721   0.0307   0.0434  -0.1193   0.1842   0.2230
1210 C_{ :2pz   -0.0085  -0.0106  -0.0031   0.0050  -0.0075   0.0101   0.0125
1213 C_{ :2pz   -0.0019   0.0004   0.0004   0.0015  -0.0046   0.0092   0.0151
1220 C_{ :3d1-   0.0027  -0.0024  -0.0076   0.0110  -0.0129   0.0128   0.0107
1225 C_{ :3d1-  -0.0111   0.0114   0.0136  -0.0108   0.0069  -0.0035  -0.0005
1250 C_| :2pz    0.0173  -0.0001  -0.0862   0.1500  -0.1899   0.1966   0.1684
1256 C_| :2pz    0.0027   0.0057   0.0024  -0.0009  -0.0030   0.0075   0.0108
1259 C_| :2pz   -0.0086  -0.0088  -0.0018   0.0045  -0.0084   0.0125   0.0158
1266 C_| :3d1-   0.0052  -0.0060  -0.0064   0.0025   0.0036  -0.0109  -0.0173
1271 C_| :3d1-  -0.0098   0.0115   0.0116  -0.0089   0.0063  -0.0056  -0.0060
1296 N_a :2pz   -0.1165   0.1077  -0.1701  -0.1783  -0.1839  -0.1868   0.1862
1302 N_a :2pz   -0.0040   0.0038  -0.0069  -0.0084  -0.0100  -0.0120   0.0141
1305 N_a :2pz   -0.0056   0.0052  -0.0096  -0.0119  -0.0147  -0.0181   0.0222
1342 N_b :2pz    0.0180  -0.0077  -0.0150   0.0101  -0.0038  -0.0032  -0.0100
1353 N_b :3d1-  -0.0113  -0.0096   0.0017  -0.0020   0.0022  -0.0022  -0.0021
1355 N_b :3d1+  -0.0081  -0.0115  -0.0023   0.0023  -0.0023   0.0023   0.0022
1358 N_b :3d1-  -0.0327  -0.0268   0.0057  -0.0068   0.0074  -0.0076  -0.0073
1360 N_b :3d1+  -0.0227  -0.0331  -0.0074   0.0076  -0.0080   0.0081   0.0077
1363 N_b :3d1-   0.0074   0.0121   0.0033  -0.0032   0.0031  -0.0029  -0.0026
1388 O_a :2pz    0.4765   0.4292  -0.0503   0.0624  -0.0677   0.0694   0.0669
1394 O_a :2pz    0.0440   0.0433  -0.0022   0.0037  -0.0048   0.0058   0.0064
1397 O_a :2pz    0.0314   0.0307  -0.0020   0.0035  -0.0048   0.0061   0.0072
1404 O_a :3d1-   0.0124   0.0113  -0.0011   0.0012  -0.0011   0.0010   0.0007
1409 O_a :3d1-   0.0145   0.0144  -0.0005   0.0007  -0.0008   0.0009   0.0009
1434 O_b :2pz   -0.3965  -0.5139  -0.0762   0.0718  -0.0711   0.0694   0.0648
1440 O_b :2pz   -0.0390  -0.0484  -0.0057   0.0051  -0.0050   0.0050   0.0051
1443 O_b :2pz   -0.0298  -0.0358  -0.0040   0.0043  -0.0050   0.0059   0.0067
1452 O_b :3d1+   0.0101   0.0129   0.0016  -0.0013   0.0011  -0.0008  -0.0006
1457 O_b :3d1+   0.0124   0.0154   0.0017  -0.0012   0.0009  -0.0006  -0.0004
2083 H_{ :2pz   -0.0123  -0.0106   0.0026  -0.0040   0.0047  -0.0051  -0.0049

    Orbital       112      113      114      115      116      117      118
   4 C_a :1s    -0.0000  -0.0000   0.0000   0.0000  -0.1759   0.4911  -0.1305
   5 C_a :1s     0.0000   0.0000   0.0000   0.0000  -0.5900  11.5830  -0.6435
   6 C_a :2px   -0.0000  -0.0000   0.0000   0.0000  -0.0024   0.0160  -0.0129
   8 C_a :2pz   -0.1494  -0.1529  -0.1973   0.1200  -0.0000  -0.0000   0.0000
   9 C_a :2px   -0.0000   0.0000   0.0000   0.0000   0.0062  -0.0007   0.0101
  12 C_a :2px   -0.0000  -0.0000   0.0000  -0.0000   0.0994  -0.4823  -0.2024
  13 C_a :2py   -0.0000  -0.0000   0.0000  -0.0000  -0.0707   0.2501  -0.2408
  14 C_a :2pz   -0.0053  -0.0141  -0.0163   0.0126   0.0000   0.0000  -0.0000
  15 C_a :2px   -0.0000   0.0000   0.0000   0.0000   0.8820   1.6644   1.3494
  16 C_a :2py   -0.0000  -0.0000   0.0000  -0.0000  -3.9051   0.4291  -6.4219
  17 C_a :2pz   -0.0128  -0.0293  -0.0385   0.0718  -0.0000  -0.0000   0.0000
  23 C_a :3d2-   0.0000  -0.0000  -0.0000  -0.0000  -0.0115   0.0110  -0.0068
  24 C_a :3d1-   0.0025  -0.0180  -0.0104  -0.0200   0.0000  -0.0000  -0.0000
  25 C_a :3d0    0.0000   0.0000  -0.0000  -0.0000   0.0045  -0.0108  -0.0012
  27 C_a :3d2+  -0.0000  -0.0000   0.0000  -0.0000  -0.0104   0.0052   0.0002
  28 C_a :3d2-  -0.0000  -0.0000  -0.0000  -0.0000  -0.2061   0.1909  -0.0851
  29 C_a :3d1-  -0.0016  -0.0059  -0.0047  -0.0202   0.0000  -0.0000   0.0000
  30 C_a :3d0   -0.0000  -0.0000   0.0000  -0.0000   0.0207  -0.1740  -0.0309
  32 C_a :3d2+  -0.0000   0.0000  -0.0000  -0.0000  -0.1896  -0.1104  -0.1434
  40 C_a :4f3-   0.0000  -0.0000  -0.0000  -0.0000   0.0021  -0.0272   0.0015
  46 C_a :4f3+   0.0000  -0.0000   0.0000  -0.0000   0.0042  -0.0169  -0.0053
  48 C_b :1s     0.0000  -0.0000  -0.0000   0.0000   0.0017   0.0130   0.0029
  50 C_b :1s    -0.0000   0.0000  -0.0000   0.0000  -0.2000  -0.7462  -0.2230
  51 C_b :1s    -0.0000   0.0000   0.0000   0.0000  -0.8779 -10.7260   0.5308
  52 C_b :2px   -0.0000  -0.0000   0.0000   0.0000   0.0020   0.0248   0.0075
  54 C_b :2pz   -0.0113  -0.2067  -0.1288  -0.1931  -0.0000   0.0000   0.0000
  58 C_b :2px    0.0000  -0.0000   0.0000  -0.0000   0.0428  -0.2613   0.2907
  59 C_b :2py   -0.0000  -0.0000   0.0000  -0.0000  -0.1319   0.2790  -0.1273
  60 C_b :2pz   -0.0051  -0.0128  -0.0133  -0.0216  -0.0000  -0.0000  -0.0000
  61 C_b :2px   -0.0000  -0.0000  -0.0000  -0.0000   1.3398   1.6081   2.5757
  62 C_b :2py   -0.0000  -0.0000   0.0000   0.0000  -3.5121   0.7677  -8.0326
  63 C_b :2pz   -0.0036  -0.0264  -0.0311  -0.1221  -0.0000   0.0000   0.0000
  69 C_b :3d2-  -0.0000  -0.0000  -0.0000  -0.0000  -0.0047  -0.0130   0.0032
  70 C_b :3d1-   0.0150   0.0112   0.0186  -0.0117   0.0000  -0.0000   0.0000
  71 C_b :3d0   -0.0000  -0.0000   0.0000  -0.0000   0.0036   0.0105  -0.0026
  73 C_b :3d2+   0.0000   0.0000  -0.0000  -0.0000  -0.0121  -0.0111  -0.0030
  74 C_b :3d2-  -0.0000  -0.0000  -0.0000  -0.0000  -0.0997  -0.2212  -0.0126
  75 C_b :3d1-   0.0030   0.0049   0.0074  -0.0117   0.0000   0.0000   0.0000
  76 C_b :3d0    0.0000   0.0000  -0.0000  -0.0000   0.0214   0.1257  -0.0648
  78 C_b :3d2+   0.0000   0.0000   0.0000   0.0000  -0.0217  -0.1592  -0.2309
  86 C_b :4f3-   0.0000   0.0000   0.0000   0.0000   0.0006  -0.0222   0.0079
  92 C_b :4f3+  -0.0000  -0.0000  -0.0000   0.0000  -0.0080  -0.0186  -0.0049
  96 C_c :1s     0.0000   0.0000   0.0000   0.0000   0.0112   0.3923  -0.5297
  97 C_c :1s     0.0000  -0.0000   0.0000  -0.0000   0.2469   9.1746  -0.1191
  98 C_c :2px    0.0000   0.0000  -0.0000  -0.0000  -0.0020   0.0125  -0.0089
 100 C_c :2pz    0.2106   0.0791   0.2191  -0.0974  -0.0000  -0.0000   0.0000
 104 C_c :2px    0.0000   0.0000  -0.0000   0.0000   0.0296  -0.3895  -0.1406
 105 C_c :2py    0.0000   0.0000  -0.0000  -0.0000  -0.1573   0.2007  -0.3840
 106 C_c :2pz    0.0108   0.0093   0.0186  -0.0092  -0.0000   0.0000  -0.0000
 107 C_c :2px    0.0000   0.0000  -0.0000   0.0000   1.3393   1.3140   2.0898
 108 C_c :2py    0.0000   0.0000  -0.0000  -0.0000  -4.1539   0.1967  -6.7602
 109 C_c :2pz    0.0205   0.0182   0.0435  -0.0539  -0.0000  -0.0000   0.0000
 116 C_c :3d1-   0.0070   0.0160   0.0129   0.0177  -0.0000  -0.0000   0.0000
 120 C_c :3d2-  -0.0000  -0.0000  -0.0000  -0.0000   0.0219   0.2066  -0.1631
 121 C_c :3d1-   0.0042   0.0039   0.0062   0.0149   0.0000  -0.0000  -0.0000
 122 C_c :3d0    0.0000   0.0000  -0.0000   0.0000  -0.0056  -0.1382  -0.0592
 124 C_c :3d2+   0.0000   0.0000   0.0000   0.0000   0.1790  -0.0928  -0.1396
 132 C_c :4f3-   0.0000   0.0000  -0.0000  -0.0000  -0.0009  -0.0206   0.0038
 138 C_c :4f3+   0.0000   0.0000  -0.0000   0.0000  -0.0044  -0.0151  -0.0074
 142 C_d :1s     0.0000   0.0000   0.0000   0.0000   0.0653  -0.5751   0.2303
 143 C_d :1s    -0.0000  -0.0000   0.0000   0.0000  -0.3924  -8.4927   2.2551
 144 C_d :2px   -0.0000   0.0000   0.0000   0.0000   0.0012   0.0191  -0.0014
 146 C_d :2pz    0.1227   0.1737   0.1564   0.1704   0.0000   0.0000  -0.0000
 150 C_d :2px   -0.0000  -0.0000   0.0000  -0.0000   0.0032  -0.1797   0.1764
 151 C_d :2py    0.0000   0.0000  -0.0000  -0.0000  -0.1694   0.2198  -0.3146
 152 C_d :2pz    0.0098   0.0090   0.0153   0.0202  -0.0000   0.0000   0.0000
 153 C_d :2px    0.0000   0.0000  -0.0000   0.0000   0.9584   1.4131   1.9280
 154 C_d :2py   -0.0000  -0.0000   0.0000  -0.0000  -4.0950   0.2177  -6.6230
 155 C_d :2pz    0.0139   0.0189   0.0357   0.1093   0.0000   0.0000  -0.0000
 161 C_d :3d2-   0.0000   0.0000  -0.0000   0.0000  -0.0001  -0.0087   0.0115
 162 C_d :3d1-  -0.0180  -0.0042  -0.0203   0.0093  -0.0000   0.0000   0.0000
 166 C_d :3d2-  -0.0000  -0.0000  -0.0000  -0.0000   0.1685  -0.1077   0.1383
 168 C_d :3d0   -0.0000   0.0000   0.0000   0.0000   0.0517   0.1003  -0.0711
 170 C_d :3d2+   0.0000   0.0000   0.0000   0.0000   0.0400  -0.0495  -0.2766
 178 C_d :4f3-   0.0000  -0.0000   0.0000  -0.0000  -0.0013  -0.0166   0.0112
 184 C_d :4f3+   0.0000  -0.0000  -0.0000  -0.0000  -0.0057  -0.0151  -0.0012
 188 C_e :1s    -0.0000  -0.0000  -0.0000  -0.0000   0.0463   0.2935  -0.2857
 189 C_e :1s     0.0000   0.0000  -0.0000  -0.0000  -1.8512   7.3661  -3.4607
 192 C_e :2pz   -0.2010   0.0082  -0.2347   0.0757   0.0000   0.0000  -0.0000
 194 C_e :2py    0.0000  -0.0000   0.0000  -0.0000  -0.0040  -0.0031  -0.0141
 196 C_e :2px   -0.0000  -0.0000   0.0000  -0.0000   0.1682  -0.3108   0.0273
 197 C_e :2py    0.0000   0.0000   0.0000   0.0000  -0.0248   0.1004  -0.3882
 198 C_e :2pz   -0.0126  -0.0031  -0.0202   0.0067  -0.0000  -0.0000   0.0000
 199 C_e :2px   -0.0000  -0.0000   0.0000   0.0000   0.6997   1.1809   1.7768
 200 C_e :2py   -0.0000  -0.0000   0.0000  -0.0000  -4.1062  -0.0468  -8.0847
 201 C_e :2pz   -0.0207  -0.0044  -0.0478   0.0377   0.0000  -0.0000  -0.0000
 207 C_e :3d2-   0.0000  -0.0000   0.0000  -0.0000  -0.0151   0.0075  -0.0016
 208 C_e :3d1-  -0.0142  -0.0118  -0.0151  -0.0154  -0.0000   0.0000  -0.0000
 211 C_e :3d2+  -0.0000  -0.0000   0.0000   0.0000  -0.0050   0.0047   0.0136
 212 C_e :3d2-  -0.0000  -0.0000  -0.0000  -0.0000  -0.1482   0.1559   0.0809
 213 C_e :3d1-  -0.0039  -0.0025  -0.0064  -0.0138  -0.0000  -0.0000   0.0000
 214 C_e :3d0   -0.0000  -0.0000   0.0000  -0.0000   0.0625  -0.1139   0.0367
 216 C_e :3d2+   0.0000   0.0000   0.0000   0.0000  -0.0507  -0.0186   0.0093
 224 C_e :4f3-  -0.0000  -0.0000   0.0000  -0.0000   0.0030  -0.0172   0.0135
 230 C_e :4f3+  -0.0000  -0.0000   0.0000   0.0000   0.0086  -0.0130  -0.0004
 234 C_f :1s    -0.0000  -0.0000   0.0000   0.0000  -0.1839  -0.4590   0.4626
 235 C_f :1s     0.0000   0.0000   0.0000   0.0000   0.2446  -6.3847   6.2550
 236 C_f :2px    0.0000   0.0000  -0.0000   0.0000   0.0003   0.0141  -0.0093
 238 C_f :2pz   -0.1948  -0.1147  -0.1814  -0.1466   0.0000  -0.0000  -0.0000
 242 C_f :2px    0.0000   0.0000  -0.0000  -0.0000   0.1034  -0.1637   0.3460
 243 C_f :2py   -0.0000  -0.0000   0.0000   0.0000  -0.1607   0.1216  -0.3365
 244 C_f :2pz   -0.0112  -0.0039  -0.0165  -0.0172  -0.0000   0.0000   0.0000
 245 C_f :2px    0.0000   0.0000  -0.0000   0.0000   1.8044   1.0741   0.6371
 246 C_f :2py    0.0000   0.0000  -0.0000  -0.0000  -5.3616   0.0723  -5.9614
 247 C_f :2pz   -0.0194  -0.0090  -0.0392  -0.0942   0.0000  -0.0000  -0.0000
 253 C_f :3d2-  -0.0000  -0.0000   0.0000  -0.0000  -0.0071  -0.0059   0.0177
[...]
2141 H_~ :1s    -0.0710   0.0769   0.0776  -0.0000   0.0398   0.1026
2142 H_~ :1s    -0.1119   0.9276   0.8890   0.0000  -0.2305   1.0312
2143 H_~ :1s     0.0610  -0.8617  -1.5600  -0.0000   0.5862  -1.6233
2147 H_~ :2px    0.0019  -0.0289  -0.0119   0.0000   0.0058  -0.0228
2148 H_~ :2py    0.0027  -0.0151  -0.0001   0.0000   0.0005  -0.0063
2150 H_~ :2px    0.0164  -0.1885  -0.1152  -0.0000   0.0363  -0.1464
2151 H_~ :2py   -0.0430  -0.0981  -0.0529  -0.0000   0.0164  -0.1074
2152 H_~ :2pz    0.0000   0.0000   0.0000  -0.0110  -0.0000  -0.0000
2162 H_~ :3d2+   0.0118   0.0025  -0.0034  -0.0000  -0.0112  -0.0026

  Total CPU  time used in SIRIUS :   2 hours  5 minutes 18 seconds
  Total wall time used in SIRIUS :   2 hours  6 minutes 10 seconds

 
     Date and time (Linux)  : Fri May  2 07:14:14 2025
     Host name              : xm046                                   

 NOTE:    1 warnings have been issued.
 Check output, result, and error files for "WARNING".


                     .---------------------------------------.
                     | End of Wave Function Section (SIRIUS) |
                     `---------------------------------------'



        *****************************************************************
        ******** Output from **PROPE input processing for ABACUS ********
        *****************************************************************



 The following molecular properties will be calculated in this run:
 ------------------------------------------------------------------

 Default print level:        0

      Electronic excitation energies 
      Direct calculation - no two-electron integrals written or read.
      Two-electron integrals will be calculated in parallel
      Natural orbital connection is used
      for perturbation dependent basis sets.


 Changes of defaults for .EXCITA:
 --------------------------------

 Number of excitation energies:    4
 Print level          :    0
 Integral print level :    0
 Convergence threshold: 1.00E-04
 Maximum iterations   :   60

 Center of mass dipole origin  :    0.099320   -0.294099    0.000000

 Center of mass gauge origin   :    0.099320   -0.294099    0.000000


                 .------------------------------------------------.
                 | Starting in Static Property Section (ABACUS) - |
                 `------------------------------------------------'


 
     Date and time (Linux)  : Fri May  2 07:14:14 2025
     Host name              : xm046                                   


                  **********************************************
                  *** ABACUS - Excitation energies (.EXCITA) ***
                  **********************************************

  Time used in EXCITA     is       5 hours 58 minutes 30 seconds


   ***************************************************************************
   ************************ FINAL RESULTS from ABACUS ************************
   ***************************************************************************


 
     Date and time (Linux)  : Fri May  2 13:59:24 2025
     Host name              : xm046                                   


                             Molecular geometry (au)
                             -----------------------

 C_a       -0.5450782699           -1.5748353896            0.0000000000
 C_b        0.0000000000            0.9701967298            0.0000000000
 C_c       -1.8830837395            2.9258742993            0.0000000000
 C_d       -1.3315992897            5.4697158887            0.0000000000
 C_e       -3.2083902392            7.4314594782            0.0000000000
 C_f       -2.6486155693            9.9734056775            0.0000000000
 C_g       -4.5171691989           11.9434980771            0.0000000000
 C_h       -3.9458596390           14.4824452864            0.0000000000
 C_i       -5.8028273686           16.4646583860            0.0000000000
 C_j       -5.2147067987           18.9987735553            0.0000000000
 C_k       -7.0543192783           20.9994436148            0.0000000000
 C_l       -6.4399220684           23.5252987942            0.0000000000
 C_m       -8.2503250580           25.5565578437            0.0000000000
 C_n       -7.5874469281           28.0661046931            0.0000000000
 C_o       -9.3383462077           30.1526722526            0.0000000000
 C_p       -8.5476337779           32.6171850320            0.0000000000
 C_q        4.9493665788          -19.5291648752            0.0000000000
 C_r        5.4573438587          -16.9832313558            0.0000000000
 C_s        3.5433574291          -15.0508163163            0.0000000000
 C_t        4.0671630490          -12.5046333569            0.0000000000
 C_u        2.1653766995          -10.5638052574            0.0000000000
 C_v        2.6983304893           -8.0176978780            0.0000000000
 C_w        0.8040916898           -6.0714179185            0.0000000000
 C_x        1.3434459897           -3.5256752591            0.0000000000
 C_y        7.9518503680          -28.3811730630            0.0000000000
 C_z        8.3961363179          -25.8635646436            0.0000000000
 C_{        6.4050320584          -23.9904170841            0.0000000000
 C_|        6.8857292483          -21.4460614847            0.0000000000
 N_a      -10.0690466075           34.7094331115            0.0000000000
 N_b       10.0291563775          -30.1937171026            0.0000000000
 O_a        9.3998530177          -32.4448174420            0.0000000000
 O_b       12.2183984270          -29.3967270028            0.0000000000
 H_a       -2.5387185494           -2.1630712295            0.0000000000
 H_b        1.9947930095            1.5559078996            0.0000000000
 H_c       -3.8783000490            2.3428578794            0.0000000000
 H_d        0.6649624998            6.0496860685            0.0000000000
 H_e       -5.2054754887            6.8548303383            0.0000000000
 H_f       -0.6497615398           10.5458793174            0.0000000000
 H_g       -6.5167167584           11.3754955372            0.0000000000
 H_h       -1.9438157595           15.0443685763            0.0000000000
 H_i       -7.8057934381           15.9089711861            0.0000000000
 H_j       -3.2079915092           19.5449592052            0.0000000000
 H_k       -9.0622477778           20.4624363650            0.0000000000
 H_l       -4.4256799989           24.0454024441            0.0000000000
 H_m      -10.2661866175           25.0520916838            0.0000000000
 H_n       -5.5598293686           28.5344090630            0.0000000000
 H_o      -11.3720354472           29.7354018227            0.0000000000
 H_p       -6.5165995984           33.0346425419            0.0000000000
 H_q      -11.9712316971           34.5362831715            0.0000000000
 H_r       -9.3270021777           36.4639153110            0.0000000000
 H_s        2.9684384893          -20.1556752250            0.0000000000
 H_t        7.4427789382          -16.3671711960            0.0000000000
 H_u        1.5565485096          -15.6600866962            0.0000000000
 H_v        6.0564645185          -11.9010151471            0.0000000000
 H_w        0.1753514700          -11.1633907873            0.0000000000
 H_x        4.6899109588           -7.4215270782            0.0000000000
 H_y       -1.1879574297           -6.6647427884            0.0000000000
 H_z        3.3366913092           -2.9349393093            0.0000000000
 H_{        6.1001152985          -29.2904998228            0.0000000000
 H_|       10.3704087975          -25.2332748438            0.0000000000
 H_}        4.4361188489          -24.6480946939            0.0000000000
 H_~        8.8645729678          -20.8104785649            0.0000000000





                        Molecular wave function and energy
                        ----------------------------------

     Spatial symmetry   1 ( A   )
     Spin multiplicity  1
     2 * M_S            0
     State number       1
     Total charge       0

     Total energy      -1336.5347300358 au (Hartrees)
                        -36368.96004896 eV
                          -3509071.3927 kJ/mol
                           -838688.1914 kcal/mol


                   Scalar Breit-Pauli relativistic corrections
                   -------------------------------------------

     Darwin correction:                          2.3335981997 au
     Mass-velocity correction:                  -2.9038538310 au

     Total relativistic correction:             -0.5702556313 au ( 0.0427%)
     Non-relativistic + relativistic energy: -1337.1049856671 au



      (Note that these corrections are NOT included in the results below.)


                                  Dipole moment
                                  -------------

                 au               Debye          C m (/(10**-30)
              6.828128          17.355369          57.891279


                             Dipole moment components
                             ------------------------

                 au               Debye          C m (/(10**-30)

      x     -2.16327637        -5.49849972       -18.34102083
      y      6.47638519        16.46132815        54.90908029
      z     -0.00000000        -0.00000000        -0.00000000


   Units:   1 a.u. =   2.54175 Debye 
            1 a.u. =   8.47835 (10**-30) C m (SI)




@               Singlet electronic excitation energies
                --------------------------------------

               ========================================
                 Sym.   Mode   Frequency    Frequency
                ex. st.  No.      (au)         (eV)
               ----------------------------------------
                   1      1     0.092316     2.512045
                   1      2     0.123089     3.349423
                   1      3     0.151436     4.120770
                   1      4     0.155617     4.234542
               ========================================

  Max    interatomic separation is   37.7875 Angstrom (   71.4080 Bohr)
  between atoms   50 and   31, "H_r   " and "O_a   ".

  Min HX interatomic separation is    1.0081 Angstrom (    1.9050 Bohr)

  Min YX interatomic separation is    1.2329 Angstrom (    2.3298 Bohr)


  Bond distances (Angstrom):
  --------------------------

                  atom 1     atom 2       distance
                  ------     ------       --------
  bond distance:  C_b        C_a          1.377315
  bond distance:  C_c        C_b          1.436663
  bond distance:  C_d        C_c          1.377413
  bond distance:  C_e        C_d          1.436673
  bond distance:  C_f        C_e          1.377370
  bond distance:  C_g        C_f          1.436865
  bond distance:  C_h        C_g          1.377147
  bond distance:  C_i        C_h          1.437327
  bond distance:  C_j        C_i          1.376637
  bond distance:  C_k        C_j          1.438239
  bond distance:  C_l        C_k          1.375599
  bond distance:  C_m        C_l          1.439865
  bond distance:  C_n        C_m          1.373542
  bond distance:  C_o        C_n          1.441405
  bond distance:  C_p        C_o          1.369644
  bond distance:  C_r        C_q          1.373805
  bond distance:  C_s        C_r          1.439281
  bond distance:  C_t        C_s          1.375598
  bond distance:  C_u        C_t          1.437922
  bond distance:  C_v        C_u          1.376543
  bond distance:  C_w        C_v          1.437196
  bond distance:  C_x        C_a          1.436821
  bond distance:  C_x        C_w          1.377052
  bond distance:  C_z        C_y          1.352847
  bond distance:  C_{        C_z          1.446618
  bond distance:  C_|        C_q          1.441849
  bond distance:  C_|        C_{          1.370233
  bond distance:  N_a        C_p          1.368944
  bond distance:  N_b        C_y          1.458890
  bond distance:  O_a        N_b          1.236903
  bond distance:  O_b        N_b          1.232878
  bond distance:  H_a        C_a          1.099953
  bond distance:  H_b        C_b          1.100161
  bond distance:  H_c        C_c          1.099976
  bond distance:  H_d        C_d          1.100208
  bond distance:  H_e        C_e          1.099982
  bond distance:  H_f        C_f          1.100274
  bond distance:  H_g        C_g          1.099978
  bond distance:  H_h        C_h          1.100375
  bond distance:  H_i        C_i          1.099958
  bond distance:  H_j        C_j          1.100539
  bond distance:  H_k        C_k          1.099894
  bond distance:  H_l        C_l          1.100851
  bond distance:  H_m        C_m          1.099643
  bond distance:  H_n        C_n          1.101215
  bond distance:  H_o        C_o          1.098601
  bond distance:  H_p        C_p          1.097245
  bond distance:  H_q        N_a          1.010755
  bond distance:  H_r        N_a          1.008057
  bond distance:  H_s        C_q          1.099440
  bond distance:  H_t        C_r          1.100063
  bond distance:  H_u        C_s          1.099698
  bond distance:  H_v        C_t          1.100087
  bond distance:  H_w        C_u          1.099836
  bond distance:  H_x        C_v          1.100105
  bond distance:  H_y        C_w          1.099912
  bond distance:  H_z        C_x          1.100128
  bond distance:  H_{        C_y          1.091671
  bond distance:  H_|        C_z          1.096689
  bond distance:  H_}        C_{          1.098493
  bond distance:  H_~        C_|          1.099847


  Bond angles (degrees):
  ----------------------

                  atom 1     atom 2     atom 3         angle
                  ------     ------     ------         -----
  bond angle:     C_b        C_a        C_x          123.841
  bond angle:     C_b        C_a        H_a          118.528
  bond angle:     C_x        C_a        H_a          117.631
  bond angle:     C_a        C_b        C_c          123.995
  bond angle:     C_a        C_b        H_b          118.452
  bond angle:     C_c        C_b        H_b          117.553
  bond angle:     C_b        C_c        C_d          123.851
  bond angle:     C_b        C_c        H_c          117.628
  bond angle:     C_d        C_c        H_c          118.521
  bond angle:     C_c        C_d        C_e          124.036
  bond angle:     C_c        C_d        H_d          118.430
  bond angle:     C_e        C_d        H_d          117.534
  bond angle:     C_d        C_e        C_f          123.849
  bond angle:     C_d        C_e        H_e          117.627
  bond angle:     C_f        C_e        H_e          118.524
  bond angle:     C_e        C_f        C_g          124.096
  bond angle:     C_e        C_f        H_f          118.401
  bond angle:     C_g        C_f        H_f          117.503
  bond angle:     C_f        C_g        C_h          123.834
  bond angle:     C_f        C_g        H_g          117.627
  bond angle:     C_h        C_g        H_g          118.539
  bond angle:     C_g        C_h        C_i          124.187
  bond angle:     C_g        C_h        H_h          118.359
  bond angle:     C_i        C_h        H_h          117.453
  bond angle:     C_h        C_i        C_j          123.803
  bond angle:     C_h        C_i        H_i          117.626
  bond angle:     C_j        C_i        H_i          118.572
  bond angle:     C_i        C_j        C_k          124.336
  bond angle:     C_i        C_j        H_j          118.292
  bond angle:     C_k        C_j        H_j          117.373
  bond angle:     C_j        C_k        C_l          123.730
  bond angle:     C_j        C_k        H_k          117.626
  bond angle:     C_l        C_k        H_k          118.644
  bond angle:     C_k        C_l        C_m          124.619
  bond angle:     C_k        C_l        H_l          118.150
  bond angle:     C_m        C_l        H_l          117.231
  bond angle:     C_l        C_m        C_n          123.494
  bond angle:     C_l        C_m        H_m          117.660
  bond angle:     C_n        C_m        H_m          118.846
  bond angle:     C_m        C_n        C_o          125.203
  bond angle:     C_m        C_n        H_n          117.801
  bond angle:     C_o        C_n        H_n          116.996
  bond angle:     C_n        C_o        C_p          122.211
  bond angle:     C_n        C_o        H_o          118.406
  bond angle:     C_p        C_o        H_o          119.383
  bond angle:     C_o        C_p        N_a          126.188
  bond angle:     C_o        C_p        H_p          119.403
  bond angle:     N_a        C_p        H_p          114.409
  bond angle:     C_r        C_q        C_|          123.427
  bond angle:     C_r        C_q        H_s          118.834
  bond angle:     C_|        C_q        H_s          117.739
  bond angle:     C_q        C_r        C_s          123.991
  bond angle:     C_q        C_r        H_t          118.522
  bond angle:     C_s        C_r        H_t          117.487
  bond angle:     C_r        C_s        C_t          123.650
  bond angle:     C_r        C_s        H_u          117.677
  bond angle:     C_t        C_s        H_u          118.673
  bond angle:     C_s        C_t        C_u          123.957
  bond angle:     C_s        C_t        H_v          118.504
  bond angle:     C_u        C_t        H_v          117.538
  bond angle:     C_t        C_u        C_v          123.760
  bond angle:     C_t        C_u        H_w          117.651
  bond angle:     C_v        C_u        H_w          118.590
  bond angle:     C_u        C_v        C_w          123.954
  bond angle:     C_u        C_v        H_x          118.487
  bond angle:     C_w        C_v        H_x          117.559
  bond angle:     C_v        C_w        C_x          123.814
  bond angle:     C_v        C_w        H_y          117.638
  bond angle:     C_x        C_w        H_y          118.548
  bond angle:     C_a        C_x        C_w          123.968
  bond angle:     C_a        C_x        H_z          117.562
  bond angle:     C_w        C_x        H_z          118.470
  bond angle:     C_z        C_y        N_b          121.098
  bond angle:     C_z        C_y        H_{          126.162
  bond angle:     N_b        C_y        H_{          112.740
  bond angle:     C_y        C_z        C_{          123.244
  bond angle:     C_y        C_z        H_|          117.714
  bond angle:     C_{        C_z        H_|          119.043
  bond angle:     C_z        C_{        C_|          122.553
  bond angle:     C_z        C_{        H_}          118.278
  bond angle:     C_|        C_{        H_}          119.170
  bond angle:     C_q        C_|        C_{          124.012
  bond angle:     C_q        C_|        H_~          117.483
  bond angle:     C_{        C_|        H_~          118.505
  bond angle:     C_p        N_a        H_q          120.822
  bond angle:     C_p        N_a        H_r          121.051
  bond angle:     H_q        N_a        H_r          118.127
  bond angle:     C_y        N_b        O_a          115.488
  bond angle:     C_y        N_b        O_b          118.890
  bond angle:     O_a        N_b        O_b          125.622




 CPU time statistics for ABACUS
 ------------------------------

 MAGINT     00:43:57      11 %
 EXCITA     05:58:30      89 %

 TOTAL      06:42:27     100 %


  Total CPU  time used in ABACUS:   6 hours 42 minutes 27 seconds
  Total wall time used in ABACUS:   6 hours 45 minutes 10 seconds


                   .-------------------------------------------.
                   | End of Static Property Section (ABACUS) - |
                   `-------------------------------------------'

  Total CPU  time used in DALTON:   8 hours 48 minutes 14 seconds
  Total wall time used in DALTON:   8 hours 51 minutes 50 seconds

 
     Date and time (Linux)  : Fri May  2 13:59:24 2025
     Host name              : xm046                                   
