

     ************************************************************************
     *************** Dalton - An Electronic Structure Program ***************
     ************************************************************************

    This is output from DALTON release Dalton2020.0 (2020)
         ( Web site: http://daltonprogram.org )

   ----------------------------------------------------------------------------

    NOTE:
     
    Dalton is an experimental code for the evaluation of molecular
    properties using (MC)SCF, DFT, CI, and CC wave functions.
    The authors accept no responsibility for the performance of
    the code or for the correctness of the results.
     
    The code (in whole or part) is provided under a licence and
    is not to be reproduced for further distribution without
    the written permission of the authors or their representatives.
     
    See the home page "http://daltonprogram.org" for further information.
     
    If results obtained with this code are published,
    the appropriate citations would be both of:
     
       K. Aidas, C. Angeli, K. L. Bak, V. Bakken, R. Bast,
       L. Boman, O. Christiansen, R. Cimiraglia, S. Coriani,
       P. Dahle, E. K. Dalskov, U. Ekstroem,
       T. Enevoldsen, J. J. Eriksen, P. Ettenhuber, B. Fernandez,
       L. Ferrighi, H. Fliegl, L. Frediani, K. Hald, A. Halkier,
       C. Haettig, H. Heiberg, T. Helgaker, A. C. Hennum,
       H. Hettema, E. Hjertenaes, S. Hoest, I.-M. Hoeyvik,
       M. F. Iozzi, B. Jansik, H. J. Aa. Jensen, D. Jonsson,
       P. Joergensen, J. Kauczor, S. Kirpekar,
       T. Kjaergaard, W. Klopper, S. Knecht, R. Kobayashi, H. Koch,
       J. Kongsted, A. Krapp, K. Kristensen, A. Ligabue,
       O. B. Lutnaes, J. I. Melo, K. V. Mikkelsen, R. H. Myhre,
       C. Neiss, C. B. Nielsen, P. Norman, J. Olsen,
       J. M. H. Olsen, A. Osted, M. J. Packer, F. Pawlowski,
       T. B. Pedersen, P. F. Provasi, S. Reine, Z. Rinkevicius,
       T. A. Ruden, K. Ruud, V. Rybkin, P. Salek, C. C. M. Samson,
       A. Sanchez de Meras, T. Saue, S. P. A. Sauer,
       B. Schimmelpfennig, K. Sneskov, A. H. Steindal,
       K. O. Sylvester-Hvid, P. R. Taylor, A. M. Teale,
       E. I. Tellgren, D. P. Tew, A. J. Thorvaldsen, L. Thoegersen,
       O. Vahtras, M. A. Watson, D. J. D. Wilson, M. Ziolkowski
       and H. Agren,
       "The Dalton quantum chemistry program system",
       WIREs Comput. Mol. Sci. 2014, 4:269–284 (doi: 10.1002/wcms.1172)
     
    and
     
       Dalton, a molecular electronic structure program,
       Release Dalton2020.0 (2020), see http://daltonprogram.org
   ----------------------------------------------------------------------------

    Authors in alphabetical order (Major contribution(s) in parenthesis):

  Kestutis Aidas,           Vilnius University,           Lithuania   (QM/MM)
  Celestino Angeli,         University of Ferrara,        Italy       (NEVPT2)
  Keld L. Bak,              UNI-C,                        Denmark     (AOSOPPA, non-adiabatic coupling, magnetic properties)
  Vebjoern Bakken,          University of Oslo,           Norway      (DALTON; geometry optimizer, symmetry detection)
  Radovan Bast,             UiT The Arctic U. of Norway,  Norway      (DALTON installation and execution frameworks)
  Pablo Baudin,             University of Valencia,       Spain       (Cholesky excitation energies)
  Linus Boman,              NTNU,                         Norway      (Cholesky decomposition and subsystems)
  Bruno N. Cabral Tenorio,  Technical Univ. of Denmark,   Denmark     (Lanczos-based CC methods)
  Ove Christiansen,         Aarhus University,            Denmark     (CC module)
  Renzo Cimiraglia,         University of Ferrara,        Italy       (NEVPT2)
  Sonia Coriani,            Technical Univ. of Denmark,   Denmark     (CC and RESPONS modules)
  Janusz Cukras,            University of Warsaw,         Poland      (MChD in RESPONS)
  Paal Dahle,               University of Oslo,           Norway      (Parallelization)
  Erik K. Dalskov,          UNI-C,                        Denmark     (SOPPA)
  Thomas Enevoldsen,        Univ. of Southern Denmark,    Denmark     (SOPPA)
  Janus J. Eriksen,         Aarhus University,            Denmark     (Polarizable embedding, TDA)
  Rasmus Faber,             Technical Univ. of Denmark,   Denmark     (Vib.avg. NMR w. SOPPA, parallel AO-SOPPA, CVS-CC and EOMCC)
  Tobias Fahleson,          KTH Stockholm,                Sweden      (Damped cubic response)
  Berta Fernandez,          U. of Santiago de Compostela, Spain       (Doublet spin, ESR in RESPONS)
  Lara Ferrighi,            Aarhus University,            Denmark     (PCM Cubic response)
  Heike Fliegl,             University of Oslo,           Norway      (CCSD(R12))
  Luca Frediani,            UiT The Arctic U. of Norway,  Norway      (PCM)
  Emmanuel Fromager,        Univ. Strasbourg,             France      (MC-srDFT)
  Bin Gao,                  UiT The Arctic U. of Norway,  Norway      (Gen1Int library)
  Andre S. P. Gomes,        CNRS/Universite de Lille,     France      (Frozen density embedding)
  Christof Haettig,         Ruhr-University Bochum,       Germany     (CC module)
  Kasper Hald,              Aarhus University,            Denmark     (CC module)
  Asger Halkier,            Aarhus University,            Denmark     (CC module)
  Frederik Beyer Hansen,    University of Copenhagen,     Denmark     (Parallel AO-SOPPA)
  Erik D. Hedegaard,        Univ. of Southern Denmark,    Denmark     (Polarizable embedding, QM/MM, and MC-srDFT)
  Hanne Heiberg,            University of Oslo,           Norway      (Geometry analysis, selected one-electron integrals)
  Trygve Helgaker,          University of Oslo,           Norway      (DALTON; ABACUS, ERI, DFT modules, London, and much more)
  Alf Christian Hennum,     University of Oslo,           Norway      (Parity violation)
  Hinne Hettema,            University of Auckland,       New Zealand (Quadratic response in RESPONS; SIRIUS supersymmetry)
  Eirik Hjertenaes,         NTNU,                         Norway      (Cholesky decomposition)
  Pi A. B. Haase,           University of Copenhagen,     Denmark     (Triplet AO-SOPPA)
  Maria Francesca Iozzi,    University of Oslo,           Norway      (RPA)
  Christoph Jacob           TU Braunschweig               Germany     (Frozen density embedding)
  Brano Jansik              Technical Univ. of Ostrava    Czech Rep.  (DFT cubic response)
  Hans Joergen Aa. Jensen,  Univ. of Southern Denmark,    Denmark     (DALTON; SIRIUS, RESPONS, ABACUS, MC-srDFT, and much more)
  Dan Jonsson,              UiT The Arctic U. of Norway,  Norway      (Cubic response in RESPONS module)
  Poul Joergensen,          Aarhus University,            Denmark     (RESPONS, ABACUS, and CC modules)
  Maciej Kaminski,          University of Warsaw,         Poland      (CPPh in RESPONS)
  Joanna Kauczor,           Linkoeping University,        Sweden      (Complex polarization propagator (CPP) module)
  Sheela Kirpekar,          Univ. of Southern Denmark,    Denmark     (Mass-velocity & Darwin integrals)
  Erik Kjellgren,           Univ. of Southern Denmark,    Denmark     (MC-srDFT)
  Wim Klopper,              KIT Karlsruhe,                Germany     (R12 code in CC, SIRIUS, and ABACUS modules)
  Stefan Knecht,            ETH Zurich,                   Switzerland (Parallel CI and MCSCF, MC-srDFT)
  Rika Kobayashi,           Australian National Univ.,    Australia   (DIIS in CC, London in MCSCF)
  Henrik Koch,              NTNU,                         Norway      (CC module, Cholesky decomposition)
  Jacob Kongsted,           Univ. of Southern Denmark,    Denmark     (Polarizable embedding, polarizable density embedding, QM/MM)
  Andrea Ligabue,           University of Modena,         Italy       (CTOCD, AOSOPPA)
  Nanna H. List             Univ. of Southern Denmark,    Denmark     (Polarizable embedding)
  Ola B. Lutnaes,           University of Oslo,           Norway      (DFT Hessian)
  Juan I. Melo,             University of Buenos Aires,   Argentina   (LRESC, Relativistic Effects on NMR Shieldings)
  Kurt V. Mikkelsen,        University of Copenhagen,     Denmark     (MC-SCRF and QM/MM)
  Rolf H. Myhre,            NTNU,                         Norway      (Subsystems and CC3)
  Christian Neiss,          Univ. Erlangen-Nuernberg,     Germany     (CCSD(R12))
  Christian B. Nielsen,     University of Copenhagen,     Denmark     (QM/MM)
  Patrick Norman,           KTH Stockholm,                Sweden      (Cubic response and complex frequency response in RESPONS)
  Jeppe Olsen,              Aarhus University,            Denmark     (SIRIUS CI/density modules)
  Jogvan Magnus H. Olsen,   Aarhus University,            Denmark     (Polarizable embedding and polarizable density embedding)
  Anders Osted,             Copenhagen University,        Denmark     (QM/MM)
  Martin J. Packer,         University of Sheffield,      UK          (SOPPA)
  Filip Pawlowski,          Kazimierz Wielki University,  Poland      (CC3)
  Morten N. Pedersen,       Univ. of Southern Denmark,    Denmark     (Polarizable embedding)
  Thomas B. Pedersen,       University of Oslo,           Norway      (Cholesky decomposition)
  Patricio F. Provasi,      University of Northeastern,   Argentina   (Analysis of coupling constants in localized orbitals)
  Peter Reinholdt,          Univ. of Southern Denmark,    Denmark     (Polarizable embedding and polarizable density embedding)
  Zilvinas Rinkevicius,     KTH Stockholm,                Sweden      (open-shell DFT, ESR)
  Elias Rudberg,            KTH Stockholm,                Sweden      (DFT grid and basis info)
  Torgeir A. Ruden,         University of Oslo,           Norway      (Numerical derivatives in ABACUS)
  Kenneth Ruud,             UiT The Arctic U. of Norway,  Norway      (DALTON; ABACUS magnetic properties and much more)
  Pawel Salek,              KTH Stockholm,                Sweden      (DALTON; DFT code)
  Claire C. M. Samson       University of Karlsruhe       Germany     (Boys localization, r12 integrals in ERI)
  Alfredo Sanchez de Meras, University of Valencia,       Spain       (CC module, Cholesky decomposition)
  Trond Saue,               Paul Sabatier University,     France      (direct Fock matrix construction)
  Stephan P. A. Sauer,      University of Copenhagen,     Denmark     (SOPPA(CCSD), SOPPA prop., AOSOPPA, vibrational g-factors)
  Bernd Schimmelpfennig,    Forschungszentrum Karlsruhe,  Germany     (AMFI module)
  Anna K. Schnack-Petersen, University of Copenhagen,     Denmark     (RPA(D) and HRPA(D) properties in AOSOPPA)
  Kristian Sneskov,         Aarhus University,            Denmark     (Polarizable embedding, QM/MM)
  Arnfinn H. Steindal,      UiT The Arctic U. of Norway,  Norway      (parallel QM/MM, polarizable embedding)
  Casper Steinmann,         Aalborg University,           Denmark     (QFIT, polarizable embedding)
  K. O. Sylvester-Hvid,     University of Copenhagen,     Denmark     (MC-SCRF)
  Peter R. Taylor,          VLSCI/Univ. of Melbourne,     Australia   (Symmetry handling ABACUS, integral transformation)
  Andrew M. Teale,          University of Nottingham,     England     (DFT-AC, DFT-D)
  David P. Tew,             University of Bristol,        England     (CCSD(R12))
  Julien Toulouse,          Sorbonne Univ.,               France      (MC-srDFT)
  Olav Vahtras,             KTH Stockholm,                Sweden      (Triplet response, spin-orbit, ESR, TDDFT, open-shell DFT)
  Lucas Visscher,           Vrije Universiteit Amsterdam, Netherlands (Frozen density embedding)
  David J. Wilson,          La Trobe University,          Australia   (DFT Hessian and DFT magnetizabilities)
  Hans Agren,               KTH Stockholm,                Sweden      (SIRIUS module, RESPONS, MC-SCRF solvation)
 --------------------------------------------------------------------------------

     Date and time (Linux)  : Tue May 27 19:45:14 2025
     Host name              : xm023                                   

 * Work memory size             :   131072000 = 1000.00 megabytes.

 * Directories for basis set searches:
   1) /gpfs/projects/rjh/adrian/summer2025/beta_projects/raw_data/NLO/dalton/hf/n7/dipole
   2) /gpfs/projects/rjh/adrian/dalton/build/basis


Compilation information
-----------------------

 Who compiled             | ahurtado
 Host                     | milan2
 System                   | Linux-5.14.0-427.42.1.el9_4.x86_64
 CMake generator          | Unix Makefiles
 Processor                | x86_64
 64-bit integers          | OFF
 MPI                      | ON
 Fortran compiler         | /gpfs/software/openmpi/milan/gcc13.2/4.1.6/bin/mpi
                          | f90
 Fortran compiler version | GNU Fortran (GCC) 13.2.0
 C compiler               | /gpfs/software/openmpi/milan/gcc13.2/4.1.6/bin/mpi
                          | cc
 C compiler version       | gcc (GCC) 13.2.0
 C++ compiler             | /gpfs/software/openmpi/milan/gcc13.2/4.1.6/bin/mpi
                          | cxx
 C++ compiler version     | unknown
 BLAS                     | /gpfs/software/intel/oneAPI/2024_2/mkl/2024.2/lib/
                          | intel64/libmkl_gf_lp64.so;/gpfs/software/intel/one
                          | API/2024_2/mkl/2024.2/lib/intel64/libmkl_sequentia
                          | l.so;/gpfs/software/intel/oneAPI/2024_2/mkl/2024.2
                          | /lib/intel64/libmkl_core.so;/usr/lib64/libpthread.
                          | a;/usr/lib64/libm.so
 LAPACK                   | /gpfs/software/intel/oneAPI/2024_2/mkl/2024.2/lib/
                          | intel64/libmkl_lapack95_lp64.a;/gpfs/software/inte
                          | l/oneAPI/2024_2/mkl/2024.2/lib/intel64/libmkl_gf_l
                          | p64.so
 Static linking           | OFF
 Last Git revision        | 66052b3af5ea7225e31178bf9a8b031913c72190
 Git branch               | (HEAD detached at Dalton2020.0)
 Configuration time       | 2025-04-10 16:02:31.569498

 * MPI parallel run using 576 processes.


   Content of the .dal input file
 ----------------------------------

**DALTON INPUT
.RUN RESPONSE
.DIRECT
**WAVE FUNCTIONS
.HF
**PROPERTIES
**RESPONSE
*QUADRA
.DIPLEN
.FREQUENCIES
2
0.0 0.019
**END OF DALTON INPUT


   Content of the .mol file
 ----------------------------

BASIS
aug-cc-pVQZ
blah
blah
Atomtype=4 Angstrom Charge=0 Nosymmetry
Charge=6 Atoms=14
C_a -5.688253998920483 -4.073789998608875 0.0
C_b -4.365261002041478 -3.7894669992272423 0.0
C_c -3.8410090024243475 -2.441841999132047 0.0
C_d -2.4968229980187657 -2.1745299991576497 0.0
C_e -1.934394000672653 -0.8473809979274352 0.0
C_f -0.5830420001909361 -0.5998170024375289 0.0
C_g 0.0 0.716076997491983 0.0
C_h 1.355741001558786 0.9461549988185847 0.0
C_i 1.9581610002367398 2.2527620022021035 0.0
C_j 3.3169849988084334 2.463290001281131 0.0
C_k 3.9445530014007044 3.7589580015352984 0.0
C_l 5.306200001638159 3.9389670014730997 0.0
C_m 5.975829998785722 5.214614000011564 0.0
C_n 7.341654001126106 5.320060999614071 0.0
Charge=7 Atoms=2
N_a 8.06204499940909 6.482939001032188 0.0
N_b -6.16284599821494 -5.452471001586912 0.0
Charge=8 Atoms=2
O_a -7.391974001849472 -5.593242998341496 0.0
O_b -5.336911002146733 -6.368107001264271 0.0
Charge=1 Atoms=16
H_a -6.50302400143975 -3.3473629986818767 0.0
H_b -3.6635359996003283 -4.632344000577958 0.0
H_c -4.55348100133573 -1.6057969983691793 0.0
H_d -1.7949299976885436 -3.021543001961013 0.0
H_e -2.630119001395431 0.0038470019025845527 0.0
H_f 0.10581700030820816 -1.4578720021307559 0.0
H_g -0.6827879990744163 1.5780069978540112 0.0
H_h 2.032161998643914 0.07803700124232153 0.0
H_i 1.2879499982624942 3.1245889975561805 0.0
H_j 3.9786580016606683 1.583488998584403 0.0
H_k 3.2915520012155386 4.643521001157808 0.0
H_l 5.942742997893013 3.040383001853259 0.0
H_m 5.36415599776086 6.127034999420813 0.0
H_n 7.952118001416368 4.408326999226803 0.0
H_o 7.597205000550958 7.380607000192131 0.0
H_p 9.070163998419307 6.470251998573463 0.0


       *******************************************************************
       *********** Output from DALTON general input processing ***********
       *******************************************************************

 --------------------------------------------------------------------------------
   Overall default print level:    0
   Print level for DALTON.STAT:    1

    Parallel calculation using MPI
    AO-direct calculation (in sections where implemented)
    HERMIT 1- and 2-electron integral sections will be executed
    "Old" integral transformation used (limited to max 255 basis functions)
    Wave function sections will be executed (SIRIUS module)
    Dynamic molecular response properties section will be executed (RESPONSE module)
 --------------------------------------------------------------------------------


   ****************************************************************************
   *************** Output of molecule and basis set information ***************
   ****************************************************************************


    The two title cards from your ".mol" input:
    ------------------------------------------------------------------------
 1: blah                                                                    
 2: blah                                                                    
    ------------------------------------------------------------------------

  Coordinates are entered in Angstrom and converted to atomic units.
          - Conversion factor : 1 bohr = 0.52917721 A

  Atomic type no.    1
  --------------------
  Nuclear charge:   6.00000
  Number of symmetry independent centers:   14
  Number of basis sets to read;    2
  Basis set file used for this atomic type with Z =   6 :
     "/gpfs/projects/rjh/adrian/dalton/build/basis/aug-cc-pVQZ"

  Atomic type no.    2
  --------------------
  Nuclear charge:   7.00000
  Number of symmetry independent centers:    2
  Number of basis sets to read;    2
  Basis set file used for this atomic type with Z =   7 :
     "/gpfs/projects/rjh/adrian/dalton/build/basis/aug-cc-pVQZ"

  Atomic type no.    3
  --------------------
  Nuclear charge:   8.00000
  Number of symmetry independent centers:    2
  Number of basis sets to read;    2
  Basis set file used for this atomic type with Z =   8 :
     "/gpfs/projects/rjh/adrian/dalton/build/basis/aug-cc-pVQZ"

  Atomic type no.    4
  --------------------
  Nuclear charge:   1.00000
  Number of symmetry independent centers:   16
  Number of basis sets to read;    2
  Basis set file used for this atomic type with Z =   1 :
     "/gpfs/projects/rjh/adrian/dalton/build/basis/aug-cc-pVQZ"


                         SYMGRP: Point group information
                         -------------------------------

@    Point group: C1 


                                 Isotopic Masses
                                 ---------------

                           C_a        12.000000
                           C_b        12.000000
                           C_c        12.000000
                           C_d        12.000000
                           C_e        12.000000
                           C_f        12.000000
                           C_g        12.000000
                           C_h        12.000000
                           C_i        12.000000
                           C_j        12.000000
                           C_k        12.000000
                           C_l        12.000000
                           C_m        12.000000
                           C_n        12.000000
                           N_a        14.003074
                           N_b        14.003074
                           O_a        15.994915
                           O_b        15.994915
                           H_a         1.007825
                           H_b         1.007825
                           H_c         1.007825
                           H_d         1.007825
                           H_e         1.007825
                           H_f         1.007825
                           H_g         1.007825
                           H_h         1.007825
                           H_i         1.007825
                           H_j         1.007825
                           H_k         1.007825
                           H_l         1.007825
                           H_m         1.007825
                           H_n         1.007825
                           H_o         1.007825
                           H_p         1.007825

                       Total mass:   244.121178 amu
                       Natural abundance:  84.411 %

 Center-of-mass coordinates (a.u.):   -0.205246   -0.186700    0.000000
 Center-of-mass coordinates (Angs):   -0.108612   -0.098797    0.000000


  Atoms and basis sets
  --------------------

  Number of atom types :    4
  Total number of atoms:   34

  Basis set used is "aug-cc-pVQZ" from the basis set library.

  label    atoms   charge   prim   cont     basis
  ----------------------------------------------------------------------
  C_         14    6.0000    93    80      [13s7p4d3f2g|6s5p4d3f2g]                           
  N_          2    7.0000    93    80      [13s7p4d3f2g|6s5p4d3f2g]                           
  O_          2    8.0000    93    80      [13s7p4d3f2g|6s5p4d3f2g]                           
  H_         16    1.0000    48    46      [7s4p3d2f|5s4p3d2f]                                
  ----------------------------------------------------------------------
  total:     34  130.0000  2442  2176
  ----------------------------------------------------------------------
  Spherical harmonic basis used.

  Threshold for neglecting AO integrals:  1.00D-12

  Max    interatomic separation is   20.4091 Angstrom (   38.5675 Bohr)
  between atoms   34 and   17, "H_p   " and "O_a   ".

  Min HX interatomic separation is    1.0082 Angstrom (    1.9052 Bohr)

  Min YX interatomic separation is    1.2331 Angstrom (    2.3302 Bohr)


  Bond distances (Angstrom):
  --------------------------

                  atom 1     atom 2       distance
                  ------     ------       --------
  bond distance:  C_b        C_a          1.353200
  bond distance:  C_c        C_b          1.446006
  bond distance:  C_d        C_c          1.370508
  bond distance:  C_e        C_d          1.441406
  bond distance:  C_f        C_e          1.373841
  bond distance:  C_g        C_f          1.439276
  bond distance:  C_h        C_g          1.375125
  bond distance:  C_i        C_h          1.438795
  bond distance:  C_j        C_i          1.375036
  bond distance:  C_k        C_j          1.439652
  bond distance:  C_l        C_k          1.373494
  bond distance:  C_m        C_l          1.440722
  bond distance:  C_n        C_m          1.369888
  bond distance:  N_a        C_n          1.367936
  bond distance:  N_b        C_a          1.458081
  bond distance:  O_a        N_b          1.237163
  bond distance:  O_b        N_b          1.233109
  bond distance:  H_a        C_a          1.091580
  bond distance:  H_b        C_b          1.096750
  bond distance:  H_c        C_c          1.098448
  bond distance:  H_d        C_d          1.100039
  bond distance:  H_e        C_e          1.099374
  bond distance:  H_f        C_f          1.100357
  bond distance:  H_g        C_g          1.099601
  bond distance:  H_h        C_h          1.100534
  bond distance:  H_i        C_i          1.099666
  bond distance:  H_j        C_j          1.100846
  bond distance:  H_k        C_k          1.099483
  bond distance:  H_l        C_l          1.101199
  bond distance:  H_m        C_m          1.098479
  bond distance:  H_n        C_n          1.097235
  bond distance:  H_o        N_a          1.010883
  bond distance:  H_p        N_a          1.008199


  Bond angles (degrees):
  ----------------------

                  atom 1     atom 2     atom 3         angle
                  ------     ------     ------         -----
  bond angle:     C_b        C_a        N_b          121.124
  bond angle:     C_b        C_a        H_a          126.152
  bond angle:     N_b        C_a        H_a          112.724
  bond angle:     C_a        C_b        C_c          123.386
  bond angle:     C_a        C_b        H_b          117.650
  bond angle:     C_c        C_b        H_b          118.964
  bond angle:     C_b        C_c        C_d          122.504
  bond angle:     C_b        C_c        H_c          118.306
  bond angle:     C_d        C_c        H_c          119.190
  bond angle:     C_c        C_d        C_e          124.214
  bond angle:     C_c        C_d        H_d          118.400
  bond angle:     C_e        C_d        H_d          117.386
  bond angle:     C_d        C_e        C_f          123.348
  bond angle:     C_d        C_e        H_e          117.774
  bond angle:     C_f        C_e        H_e          118.878
  bond angle:     C_e        C_f        C_g          124.278
  bond angle:     C_e        C_f        H_f          118.377
  bond angle:     C_g        C_f        H_f          117.345
  bond angle:     C_f        C_g        C_h          123.529
  bond angle:     C_f        C_g        H_g          117.718
  bond angle:     C_h        C_g        H_g          118.753
  bond angle:     C_g        C_h        C_i          124.384
  bond angle:     C_g        C_h        H_h          118.293
  bond angle:     C_i        C_h        H_h          117.323
  bond angle:     C_h        C_i        C_j          123.559
  bond angle:     C_h        C_i        H_i          117.697
  bond angle:     C_j        C_i        H_i          118.744
  bond angle:     C_i        C_j        C_k          124.651
  bond angle:     C_i        C_j        H_j          118.139
  bond angle:     C_k        C_j        H_j          117.211
  bond angle:     C_j        C_k        C_l          123.374
  bond angle:     C_j        C_k        H_k          117.721
  bond angle:     C_l        C_k        H_k          118.905
  bond angle:     C_k        C_l        C_m          125.227
  bond angle:     C_k        C_l        H_l          117.782
  bond angle:     C_m        C_l        H_l          116.990
  bond angle:     C_l        C_m        C_n          122.111
  bond angle:     C_l        C_m        H_m          118.466
  bond angle:     C_n        C_m        H_m          119.423
  bond angle:     C_m        C_n        N_a          126.192
  bond angle:     C_m        C_n        H_n          119.390
  bond angle:     N_a        C_n        H_n          114.417
  bond angle:     C_n        N_a        H_o          120.846
  bond angle:     C_n        N_a        H_p          121.057
  bond angle:     H_o        N_a        H_p          118.098
  bond angle:     C_a        N_b        O_a          115.529
  bond angle:     C_a        N_b        O_b          118.953
  bond angle:     O_a        N_b        O_b          125.518




 Principal moments of inertia (u*A**2) and principal axes
 --------------------------------------------------------

   IA      97.541278          0.769275    0.638918    0.000000
   IB    9862.539910         -0.638918    0.769275    0.000000
   IC    9960.081189          0.000000    0.000000    1.000000


 Rotational constants
 --------------------

@    The molecule is planar.

               A                   B                   C

           5181.1809             51.2423             50.7405 MHz
            0.172826            0.001709            0.001693 cm-1


@  Nuclear repulsion energy :  980.156376287948 Hartree


                     .---------------------------------------.
                     | Starting in Integral Section (HERMIT) |
                     `---------------------------------------'



 ***************************************************************************************
 ****************** Output from **INTEGRALS input processing (HERMIT) ******************
 ***************************************************************************************


 - Using defaults, no **INTEGRALS input found

 Default print level:        1

 Calculation of one-electron Hamiltonian integrals.

 Center of mass  (bohr):     -0.205246260585     -0.186699563756      0.000000000000
 Operator center (bohr):      0.000000000000      0.000000000000      0.000000000000
 Gauge origin    (bohr):      0.000000000000      0.000000000000      0.000000000000
 Dipole origin   (bohr):      0.000000000000      0.000000000000      0.000000000000


     ************************************************************************
     ************************** Output from HERINT **************************
     ************************************************************************



                      Nuclear contribution to dipole moments
                      --------------------------------------

                 au               Debye          C m (/(10**-30)

      x      0.00001130         0.00002872         0.00009581
      y     -0.00001317        -0.00003347        -0.00011166
      z      0.00000000         0.00000000         0.00000000


  Time used in ONEDRV     is       6.96 seconds
  Time used in HUCKEL     is       1.70 seconds
  Time used in OVERLAP    is       0.95 seconds
  Time used in POPOVLP    is       1.86 seconds
  Time used in R2         is       1.16 seconds
  Time used in R4         is       1.38 seconds
  Time used in DIPLEN     is       1.93 seconds
  Time used in QUADRUP    is       3.89 seconds
  Time used in KINENE     is       1.48 seconds
  Time used in GABGEN     is      21.65 seconds
  Total CPU  time used in HERMIT:  42.97 seconds
  Total wall time used in HERMIT:  45.53 seconds


                        .----------------------------------.
                        | End of Integral Section (HERMIT) |
                        `----------------------------------'



                   .--------------------------------------------.
                   | Starting in Wave Function Section (SIRIUS) |
                   `--------------------------------------------'



@ Primary orbitals are deleted during canonical orthonormalization
@   because of detected numerical linear dependence or too large coefficients.
@ Eigenvalue threshold for num. lin. dep. =  1.00D-06

@  23 MO components are deleted in symmetry    1
 Overlap eigenvalues of the deleted orbitals:
  9.95D-07  9.70D-07  9.34D-07  9.12D-07  8.16D-07
  7.72D-07  6.76D-07  6.57D-07  6.37D-07  5.62D-07
  5.42D-07  5.15D-07  5.00D-07  4.47D-07  3.99D-07
  3.68D-07  2.70D-07  2.60D-07  2.29D-07  2.17D-07
  1.49D-07  1.42D-07  3.72D-08

 Max MO coeff. of last deleted MO & limit:  2.74D+02  1.00D+03

WARNING: Orbitals have been deleted because of numerical
   linear dependence although not requested in input.

 *** Output from Huckel module :

     Using EWMO model:          T
     Using EHT  model:          F
     Number of Huckel orbitals each symmetry:  106

 EWMO - Energy Weighted Maximum Overlap - is a Huckel type method,
        which normally is better than Extended Huckel Theory.
 Reference: Linderberg and Ohrn, Propagators in Quantum Chemistry (Wiley, 1973)

 Huckel EWMO eigenvalues for symmetry :  1
          -20.684753     -20.683492     -15.677078     -15.674970     -11.359301
          -11.359159     -11.358872     -11.357977     -11.356157     -11.353878
          -11.351614     -11.348326     -11.347057     -11.346068     -11.345522
          -11.345452     -11.345269     -11.345246      -1.964051      -1.791566
           -1.778481      -1.739932      -1.665395      -1.556023      -1.449247
           -1.414950      -1.276025      -1.196856      -1.147045      -1.126329
           -1.059899      -0.992425      -0.966392      -0.880475      -0.872099
           -0.852004      -0.820399      -0.772916      -0.756153      -0.734376
           -0.730012      -0.689678      -0.670994      -0.653153      -0.626376
           -0.604435      -0.603097      -0.585270      -0.559913      -0.549165
           -0.535375      -0.531153      -0.508130      -0.501152      -0.494001
           -0.488089      -0.484778      -0.477616      -0.476986      -0.470451
           -0.449592      -0.413294      -0.403925      -0.370769      -0.366828
           -0.335018      -0.291582      -0.260815      -0.236815      -0.229147
           -0.219194      -0.207046      -0.201042      -0.199305      -0.195045
           -0.190532      -0.166582      -0.142745      -0.138800      -0.132988
           -0.131056      -0.130764      -0.129488      -0.129047      -0.128951
           -0.127697      -0.127089      -0.126387      -0.125248      -0.125045
           -0.123898      -0.123125      -0.111232      -0.108736      -0.103713
           -0.101414      -0.095966      -0.094499      -0.090640      -0.089296
           -0.087338      -0.085948      -0.085051      -0.082948      -0.080875
           -0.079433

 **********************************************************************
 *SIRIUS* a direct, restricted step, second order MCSCF program       *
 **********************************************************************

 
     Date and time (Linux)  : Tue May 27 19:55:31 2025
     Host name              : xm023                                   

 Title lines from ".mol" input file:
     blah                                                                    
     blah                                                                    

 Print level on unit LUPRI =   2 is   0
 Print level on unit LUW4  =   2 is   5

@    Restricted, closed shell Hartree-Fock calculation.

@    Time-dependent Hartree-Fock calculation (random phase approximation).
 Fock matrices are calculated directly and in parallel without use of integrals on disk.

 Initial molecular orbitals are obtained according to
 ".MOSTART EWMO  " input option

     Wave function specification
     ============================
@    Wave function type        --- HF ---
@    Number of closed shell electrons         130
@    Number of electrons in active shells       0
@    Total charge of the molecule               0

@    Spin multiplicity and 2 M_S                1         0
@    Total number of symmetries                 1 (point group: C1 )
@    Reference state symmetry                   1 (irrep name : A  )

     Orbital specifications
     ======================
@    Abelian symmetry species          All |    1
@                                          |  A  
                                       --- |  ---
@    Occupied SCF orbitals              65 |   65
@    Secondary orbitals               2088 | 2088
@    Total number of orbitals         2153 | 2153
@    Number of basis functions        2176 | 2176

     Optimization information
     ========================
@    Number of configurations                 1
@    Number of orbital rotations         135720
     ------------------------------------------
@    Total number of variables           135721

     Maximum number of Fock   iterations      0
     Maximum number of DIIS   iterations     60
     Maximum number of QC-SCF iterations     60
     Threshold for SCF convergence     1.00D-05

    INFORMATION: Switched to "new" integral transformation (from 1988 ;-) )
    because more than 255 basis functions.


 ***********************************************
 ***** DIIS acceleration of SCF iterations *****
 ***********************************************

 C1-DIIS algorithm; max error vectors =    8

 Iter      Total energy        Error norm    Delta(E)  DIIS dim.
 -----------------------------------------------------------------------------
   1  Screening settings (-IFTHRS, JTDIIS, DIFDEN, times)  -10    1    T  1.22D+02  1.22D+02
@  1    -795.031636313        7.26405D+00   -7.95D+02    1
      Virial theorem: -V/T =      2.009255
@    MULPOP   C_a     0.06; C_b    -0.28; C_c    -0.25; C_d    -0.18; C_e    -0.41; C_f    -0.22; C_g    -0.32; C_h    -0.29; C_i    -0.40; C_j    -0.28; 
@             C_k    -0.48; C_l    -0.19; C_m    -0.48; C_n     0.42; N_a    -1.24; N_b     1.80; O_a    -1.74; O_b    -1.68; H_a     0.49; H_b     0.52; 
@             H_c     0.41; H_d     0.25; H_e     0.34; H_f     0.31; H_g     0.34; H_h     0.36; H_i     0.37; H_j     0.28; H_k     0.35; H_l     0.39; 
@    MULPOP    dipole moment & components:     24.3688;       16.6925     17.7538      0.0000
   1  Level shift: doubly occupied orbital energies shifted by -2.00D-01
 -----------------------------------------------------------------------------
   2  Screening settings (-IFTHRS, JTDIIS, DIFDEN, times)  -10    2    T  1.24D+02  1.25D+02
@  2    -797.711584733        2.94642D+00   -2.68D+00    2
      Virial theorem: -V/T =      2.000932
@    MULPOP   C_a    -0.57; C_b    -0.43; C_c    -0.39; C_d    -0.28; C_e    -0.39; C_f    -0.30; C_g    -0.34; C_h    -0.32; C_i    -0.36; C_j    -0.30; 
@             C_k    -0.38; C_l    -0.32; C_m    -0.52; C_n    -0.11; N_a    -0.92; N_b     0.19; O_a    -0.21; O_b    -0.35; H_a     0.53; H_b     0.52; 
@             H_c     0.40; H_d     0.33; H_e     0.35; H_f     0.33; H_g     0.34; H_h     0.35; H_i     0.34; H_j     0.32; H_k     0.35; H_l     0.37; 
@    MULPOP    dipole moment & components:      9.3864;        6.8053      6.4647      0.0000
   2  Level shift: doubly occupied orbital energies shifted by -1.00D-01
 -----------------------------------------------------------------------------
   3  Screening settings (-IFTHRS, JTDIIS, DIFDEN, times)  -10    3    T  1.20D+02  1.20D+02
@  3    -798.127695490        9.29482D-01   -4.16D-01    3
      Virial theorem: -V/T =      2.001282
@    MULPOP   C_a    -0.33; C_b    -0.33; C_c    -0.33; C_d    -0.21; C_e    -0.32; C_f    -0.22; C_g    -0.28; C_h    -0.26; C_i    -0.30; C_j    -0.25; 
@             C_k    -0.35; C_l    -0.26; C_m    -0.50; C_n    -0.08; N_a    -0.79; N_b     0.81; O_a    -0.70; O_b    -0.66; H_a     0.51; H_b     0.45; 
@             H_c     0.34; H_d     0.27; H_e     0.29; H_f     0.27; H_g     0.27; H_h     0.30; H_i     0.27; H_j     0.26; H_k     0.30; H_l     0.31; 
@    MULPOP    dipole moment & components:      8.7222;        6.0573      6.2759      0.0000
   3  Level shift: doubly occupied orbital energies shifted by -5.00D-02
 -----------------------------------------------------------------------------
   4  Screening settings (-IFTHRS, JTDIIS, DIFDEN, times)  -10    4    T  1.17D+02  1.17D+02
@  4    -798.180457840        2.65974D-01   -5.28D-02    4
      Virial theorem: -V/T =      2.003113
@    MULPOP   C_a    -0.44; C_b    -0.31; C_c    -0.32; C_d    -0.15; C_e    -0.30; C_f    -0.18; C_g    -0.24; C_h    -0.22; C_i    -0.26; C_j    -0.21; 
@             C_k    -0.31; C_l    -0.25; C_m    -0.48; C_n    -0.07; N_a    -0.73; N_b     0.65; O_a    -0.57; O_b    -0.61; H_a     0.54; H_b     0.46; 
@             H_c     0.32; H_d     0.24; H_e     0.26; H_f     0.24; H_g     0.24; H_h     0.27; H_i     0.23; H_j     0.23; H_k     0.27; H_l     0.29; 
@    MULPOP    dipole moment & components:      8.2434;        5.7441      5.9126      0.0000
   4  Level shift: doubly occupied orbital energies shifted by -2.50D-02
 -----------------------------------------------------------------------------
   5  Screening settings (-IFTHRS, JTDIIS, DIFDEN, times)  -14    5    F  1.42D+02  1.42D+02
@  5    -798.190458323        1.10386D-01   -1.00D-02    5
      Virial theorem: -V/T =      2.002444
@    MULPOP   C_a    -0.41; C_b    -0.33; C_c    -0.33; C_d    -0.17; C_e    -0.31; C_f    -0.19; C_g    -0.25; C_h    -0.23; C_i    -0.26; C_j    -0.21; 
@             C_k    -0.31; C_l    -0.26; C_m    -0.49; C_n    -0.09; N_a    -0.73; N_b     0.70; O_a    -0.60; O_b    -0.60; H_a     0.54; H_b     0.46; 
@             H_c     0.33; H_d     0.25; H_e     0.27; H_f     0.25; H_g     0.25; H_h     0.28; H_i     0.24; H_j     0.23; H_k     0.27; H_l     0.29; 
@    MULPOP    dipole moment & components:      7.6841;        5.3405      5.5250      0.0000
   5  Level shift: doubly occupied orbital energies shifted by -1.25D-02
 -----------------------------------------------------------------------------
   6  Screening settings (-IFTHRS, JTDIIS, DIFDEN, times)  -14    6    T  1.36D+02  1.37D+02
@  6    -798.193191486        5.49689D-02   -2.73D-03    6
      Virial theorem: -V/T =      2.002314
@    MULPOP   C_a    -0.42; C_b    -0.32; C_c    -0.33; C_d    -0.17; C_e    -0.30; C_f    -0.19; C_g    -0.25; C_h    -0.24; C_i    -0.26; C_j    -0.22; 
@             C_k    -0.32; C_l    -0.27; C_m    -0.48; C_n    -0.09; N_a    -0.73; N_b     0.69; O_a    -0.59; O_b    -0.61; H_a     0.54; H_b     0.47; 
@             H_c     0.33; H_d     0.25; H_e     0.27; H_f     0.25; H_g     0.25; H_h     0.28; H_i     0.24; H_j     0.23; H_k     0.27; H_l     0.29; 
@    MULPOP    dipole moment & components:      7.4050;        5.1036      5.3654      0.0000
 -----------------------------------------------------------------------------
   7  Screening settings (-IFTHRS, JTDIIS, DIFDEN, times)  -14    7    T  1.34D+02  1.34D+02
@  7    -798.194008720        2.64068D-02   -8.17D-04    7
      Virial theorem: -V/T =      2.002356
@    MULPOP   C_a    -0.42; C_b    -0.33; C_c    -0.33; C_d    -0.17; C_e    -0.30; C_f    -0.19; C_g    -0.25; C_h    -0.24; C_i    -0.26; C_j    -0.21; 
@             C_k    -0.31; C_l    -0.27; C_m    -0.48; C_n    -0.09; N_a    -0.74; N_b     0.69; O_a    -0.59; O_b    -0.60; H_a     0.55; H_b     0.47; 
@             H_c     0.33; H_d     0.25; H_e     0.27; H_f     0.25; H_g     0.25; H_h     0.28; H_i     0.24; H_j     0.23; H_k     0.27; H_l     0.29; 
@    MULPOP    dipole moment & components:      7.2242;        4.9838      5.2299      0.0000
 -----------------------------------------------------------------------------
   8  Screening settings (-IFTHRS, JTDIIS, DIFDEN, times)  -14    8    T  1.33D+02  1.33D+02
@  8    -798.194195721        1.11303D-02   -1.87D-04    8
      Virial theorem: -V/T =      2.002349
@    MULPOP   C_a    -0.42; C_b    -0.33; C_c    -0.33; C_d    -0.17; C_e    -0.30; C_f    -0.19; C_g    -0.25; C_h    -0.24; C_i    -0.26; C_j    -0.22; 
@             C_k    -0.31; C_l    -0.27; C_m    -0.48; C_n    -0.09; N_a    -0.74; N_b     0.69; O_a    -0.59; O_b    -0.60; H_a     0.55; H_b     0.47; 
@             H_c     0.33; H_d     0.25; H_e     0.27; H_f     0.25; H_g     0.25; H_h     0.28; H_i     0.24; H_j     0.23; H_k     0.27; H_l     0.29; 
@    MULPOP    dipole moment & components:      7.0806;        4.8588      5.1505      0.0000
 -----------------------------------------------------------------------------
   9  Screening settings (-IFTHRS, JTDIIS, DIFDEN, times)  -14    9    T  1.30D+02  1.31D+02
@  9    -798.194222772        4.25515D-03   -2.71D-05    8
      Virial theorem: -V/T =      2.002339
@    MULPOP   C_a    -0.42; C_b    -0.33; C_c    -0.33; C_d    -0.17; C_e    -0.30; C_f    -0.19; C_g    -0.24; C_h    -0.24; C_i    -0.26; C_j    -0.22; 
@             C_k    -0.31; C_l    -0.27; C_m    -0.48; C_n    -0.09; N_a    -0.74; N_b     0.69; O_a    -0.59; O_b    -0.60; H_a     0.55; H_b     0.47; 
@             H_c     0.33; H_d     0.25; H_e     0.27; H_f     0.25; H_g     0.25; H_h     0.28; H_i     0.24; H_j     0.23; H_k     0.27; H_l     0.29; 
@    MULPOP    dipole moment & components:      7.0196;        4.8128      5.1099      0.0000
 -----------------------------------------------------------------------------
  10  Screening settings (-IFTHRS, JTDIIS, DIFDEN, times)  -14   10    T  1.29D+02  1.29D+02
@ 10    -798.194228823        2.31210D-03   -6.05D-06    8
      Virial theorem: -V/T =      2.002340
@    MULPOP   C_a    -0.42; C_b    -0.33; C_c    -0.33; C_d    -0.17; C_e    -0.30; C_f    -0.19; C_g    -0.24; C_h    -0.24; C_i    -0.26; C_j    -0.22; 
@             C_k    -0.31; C_l    -0.27; C_m    -0.48; C_n    -0.09; N_a    -0.74; N_b     0.69; O_a    -0.59; O_b    -0.60; H_a     0.55; H_b     0.47; 
@             H_c     0.33; H_d     0.25; H_e     0.27; H_f     0.25; H_g     0.25; H_h     0.28; H_i     0.24; H_j     0.23; H_k     0.27; H_l     0.29; 
@    MULPOP    dipole moment & components:      6.9784;        4.7769      5.0872      0.0000
 -----------------------------------------------------------------------------
  11  Screening settings (-IFTHRS, JTDIIS, DIFDEN, times)  -14   11    T  1.27D+02  1.27D+02
@ 11    -798.194231008        1.39538D-03   -2.19D-06    8
      Virial theorem: -V/T =      2.002341
@    MULPOP   C_a    -0.42; C_b    -0.33; C_c    -0.33; C_d    -0.17; C_e    -0.30; C_f    -0.19; C_g    -0.24; C_h    -0.24; C_i    -0.26; C_j    -0.22; 
@             C_k    -0.31; C_l    -0.27; C_m    -0.48; C_n    -0.09; N_a    -0.74; N_b     0.69; O_a    -0.59; O_b    -0.60; H_a     0.55; H_b     0.47; 
@             H_c     0.33; H_d     0.25; H_e     0.27; H_f     0.25; H_g     0.25; H_h     0.28; H_i     0.24; H_j     0.23; H_k     0.27; H_l     0.29; 
@    MULPOP    dipole moment & components:      6.9500;        4.7516      5.0719      0.0000
 -----------------------------------------------------------------------------
  12  Screening settings (-IFTHRS, JTDIIS, DIFDEN, times)  -14   12    T  1.26D+02  1.27D+02
@ 12    -798.194231812        4.56635D-04   -8.03D-07    8
      Virial theorem: -V/T =      2.002340
@    MULPOP   C_a    -0.42; C_b    -0.33; C_c    -0.33; C_d    -0.17; C_e    -0.30; C_f    -0.19; C_g    -0.24; C_h    -0.24; C_i    -0.26; C_j    -0.22; 
@             C_k    -0.31; C_l    -0.27; C_m    -0.48; C_n    -0.09; N_a    -0.74; N_b     0.69; O_a    -0.59; O_b    -0.60; H_a     0.55; H_b     0.47; 
@             H_c     0.33; H_d     0.25; H_e     0.27; H_f     0.25; H_g     0.25; H_h     0.28; H_i     0.24; H_j     0.23; H_k     0.27; H_l     0.29; 
@    MULPOP    dipole moment & components:      6.9279;        4.7316      5.0604      0.0000
 -----------------------------------------------------------------------------
  13  Screening settings (-IFTHRS, JTDIIS, DIFDEN, times)  -14   13    T  1.25D+02  1.25D+02
@ 13    -798.194231904        1.80558D-04   -9.23D-08    8
      Virial theorem: -V/T =      2.002340
@    MULPOP   C_a    -0.42; C_b    -0.33; C_c    -0.33; C_d    -0.17; C_e    -0.30; C_f    -0.19; C_g    -0.24; C_h    -0.24; C_i    -0.26; C_j    -0.22; 
@             C_k    -0.31; C_l    -0.27; C_m    -0.48; C_n    -0.09; N_a    -0.74; N_b     0.69; O_a    -0.59; O_b    -0.60; H_a     0.55; H_b     0.47; 
@             H_c     0.33; H_d     0.25; H_e     0.27; H_f     0.25; H_g     0.25; H_h     0.28; H_i     0.24; H_j     0.23; H_k     0.27; H_l     0.29; 
@    MULPOP    dipole moment & components:      6.9199;        4.7241      5.0564      0.0000
 -----------------------------------------------------------------------------
  14  Screening settings (-IFTHRS, JTDIIS, DIFDEN, times)  -14   14    T  1.20D+02  1.21D+02
@ 14    -798.194231911        7.23839D-05   -6.38D-09    8
      Virial theorem: -V/T =      2.002340
@    MULPOP   C_a    -0.42; C_b    -0.33; C_c    -0.33; C_d    -0.17; C_e    -0.30; C_f    -0.19; C_g    -0.24; C_h    -0.24; C_i    -0.26; C_j    -0.22; 
@             C_k    -0.31; C_l    -0.27; C_m    -0.48; C_n    -0.09; N_a    -0.74; N_b     0.69; O_a    -0.59; O_b    -0.60; H_a     0.55; H_b     0.47; 
@             H_c     0.33; H_d     0.25; H_e     0.27; H_f     0.25; H_g     0.25; H_h     0.28; H_i     0.24; H_j     0.23; H_k     0.27; H_l     0.29; 
@    MULPOP    dipole moment & components:      6.9187;        4.7230      5.0558      0.0000
 -----------------------------------------------------------------------------
  15  Screening settings (-IFTHRS, JTDIIS, DIFDEN, times)  -14   15    T  1.18D+02  1.19D+02
@ 15    -798.194231912        3.06166D-05   -1.21D-09    8
      Virial theorem: -V/T =      2.002340
@    MULPOP   C_a    -0.42; C_b    -0.33; C_c    -0.33; C_d    -0.17; C_e    -0.30; C_f    -0.19; C_g    -0.24; C_h    -0.24; C_i    -0.26; C_j    -0.22; 
@             C_k    -0.31; C_l    -0.27; C_m    -0.48; C_n    -0.09; N_a    -0.74; N_b     0.69; O_a    -0.59; O_b    -0.60; H_a     0.55; H_b     0.47; 
@             H_c     0.33; H_d     0.25; H_e     0.27; H_f     0.25; H_g     0.25; H_h     0.28; H_i     0.24; H_j     0.23; H_k     0.27; H_l     0.29; 
@    MULPOP    dipole moment & components:      6.9180;        4.7224      5.0555      0.0000
 -----------------------------------------------------------------------------
  16  Screening settings (-IFTHRS, JTDIIS, DIFDEN, times)  -14   16    T  1.18D+02  1.18D+02
@ 16    -798.194231912        1.45028D-05   -1.33D-10    8
      Virial theorem: -V/T =      2.002340
@    MULPOP   C_a    -0.42; C_b    -0.33; C_c    -0.33; C_d    -0.17; C_e    -0.30; C_f    -0.19; C_g    -0.24; C_h    -0.24; C_i    -0.26; C_j    -0.22; 
@             C_k    -0.31; C_l    -0.27; C_m    -0.48; C_n    -0.09; N_a    -0.74; N_b     0.69; O_a    -0.59; O_b    -0.60; H_a     0.55; H_b     0.47; 
@             H_c     0.33; H_d     0.25; H_e     0.27; H_f     0.25; H_g     0.25; H_h     0.28; H_i     0.24; H_j     0.23; H_k     0.27; H_l     0.29; 
@    MULPOP    dipole moment & components:      6.9180;        4.7224      5.0555      0.0000
 -----------------------------------------------------------------------------
  17  Screening settings (-IFTHRS, JTDIIS, DIFDEN, times)  -14   17    T  1.18D+02  1.18D+02
@ 17    -798.194231912        8.50693D-06   -6.37D-11    8

@ *** DIIS converged in  17 iterations !
@     Converged SCF energy, gradient:   -798.194231911910    8.51D-06
    - total time used in SIRFCK :              0.00 seconds


 *** SCF orbital energy analysis ***

 Only the 20 lowest virtual orbital energies printed in each symmetry.

 Number of electrons :  130
 Orbital occupations :   65

 Sym       Hartree-Fock orbital energies

1 A     -20.58168022   -20.57886762   -15.83311922   -15.59579155   -11.30789200
        -11.28522440   -11.28327390   -11.27439487   -11.26623198   -11.26032252
        -11.25927550   -11.25652652   -11.25377399   -11.24824693   -11.24388747
        -11.23889655   -11.23353659   -11.23077815    -1.57375732    -1.37164343
         -1.24238418    -1.13917295    -1.12203797    -1.10580576    -1.08251202
         -1.05212251    -1.01550601    -0.97350694    -0.93527829    -0.87454075
         -0.83114099    -0.79929167    -0.78264253    -0.77825749    -0.76464048
         -0.76101238    -0.73221021    -0.72285176    -0.70807884    -0.69266890
         -0.68564973    -0.66556900    -0.65454655    -0.62749435    -0.62254730
         -0.59755557    -0.58030347    -0.57140798    -0.55176297    -0.54319108
         -0.53568088    -0.53029277    -0.52363732    -0.51470152    -0.50548930
         -0.49465800    -0.47766252    -0.47510998    -0.47429630    -0.44511135
         -0.43627215    -0.40547762    -0.35655313    -0.30043133    -0.24288591
          0.01096339     0.01448488     0.01955568     0.02423210     0.02703078
          0.02958325     0.03752464     0.04132696     0.04952366     0.05568873
          0.05942647     0.06330169     0.06428983     0.06727086     0.06988321
          0.07037148     0.07247661     0.07361458     0.07694601     0.07984687

    E(LUMO) :     0.01096339 au (symmetry 1)
  - E(HOMO) :    -0.24288591 au (symmetry 1)
  ------------------------------------------
    gap     :     0.25384931 au

 --- Writing SIRIFC interface file

 CPU and wall time for SCF :    3441.777    3465.200


                       .-----------------------------------.
                       | --- Final results from SIRIUS --- |
                       `-----------------------------------'


@    Spin multiplicity:           1
@    Spatial symmetry:            1 ( irrep  A   in C1  )
@    Total charge of molecule:    0

@    Final HF energy:            -798.194231911910                 
@    Nuclear repulsion:           980.156376287948
@    Electronic energy:         -1778.350608199859

@    Final gradient norm:           0.000008506930

 
     Date and time (Linux)  : Tue May 27 20:53:38 2025
     Host name              : xm023                                   

File label for MO orbitals:  27May25   FOCKDIIS

 (Only coefficients > 0.0100 are printed.)

 Molecular orbitals for symmetry species 1  (A  )
 ------------------------------------------------

    Orbital        56       57       58       59       60       61       62
   2 C_a :1s    -0.0000  -0.1057   0.0193  -0.0000   0.0000  -0.0000  -0.0000
   4 C_a :1s    -0.0000  -0.0319  -0.0399   0.0000   0.0000  -0.0000   0.0000
   5 C_a :1s    -0.0000   0.0338   0.0991  -0.0000   0.0000  -0.0000   0.0000
   6 C_a :1s     0.0000   0.2609  -0.0211  -0.0000   0.0000  -0.0000  -0.0000
   7 C_a :2px   -0.0000   0.1402   0.0549   0.0000  -0.0000   0.0000  -0.0000
   8 C_a :2py   -0.0000   0.2806  -0.1553   0.0000   0.0000  -0.0000   0.0000
   9 C_a :2pz   -0.1528   0.0000  -0.0000   0.1912  -0.2500  -0.0293  -0.2987
  13 C_a :2px    0.0000  -0.0400  -0.0589  -0.0000   0.0000   0.0000  -0.0000
  14 C_a :2py    0.0000  -0.0218  -0.0128  -0.0000   0.0000  -0.0000   0.0000
  16 C_a :2px    0.0000   0.0189  -0.1702  -0.0000  -0.0000   0.0000  -0.0000
  17 C_a :2py   -0.0000  -0.0468   0.0162   0.0000   0.0000  -0.0000   0.0000
  18 C_a :2pz    0.0054  -0.0000   0.0000   0.0036  -0.0053   0.0045  -0.0103
  19 C_a :2px    0.0000   0.0607   0.0759  -0.0000  -0.0000  -0.0000  -0.0000
  20 C_a :2py    0.0000   0.0203   0.0554  -0.0000   0.0000  -0.0000   0.0000
  21 C_a :2pz   -0.0021   0.0000   0.0000   0.0002  -0.0032   0.0212  -0.0030
  31 C_a :3d2+  -0.0000   0.0141  -0.0000   0.0000  -0.0000   0.0000   0.0000
  32 C_a :3d2-   0.0000   0.0243   0.0216  -0.0000  -0.0000  -0.0000  -0.0000
  35 C_a :3d1+  -0.0058   0.0000  -0.0000   0.0104  -0.0128   0.0048  -0.0133
  36 C_a :3d2+   0.0000   0.0202   0.0068  -0.0000   0.0000   0.0000  -0.0000
  37 C_a :3d2-   0.0000   0.0631  -0.0049   0.0000  -0.0000   0.0000  -0.0000
  40 C_a :3d1+   0.0053  -0.0000   0.0000   0.0077  -0.0072   0.0187  -0.0121
  41 C_a :3d2+  -0.0000   0.0076   0.0509   0.0000  -0.0000   0.0000  -0.0000
  49 C_a :4f3-  -0.0000  -0.0107  -0.0113  -0.0000   0.0000   0.0000   0.0000
  56 C_a :4f3-  -0.0000  -0.0082  -0.0116  -0.0000   0.0000  -0.0000   0.0000
  82 C_b :1s    -0.0000   0.0310   0.0484   0.0000  -0.0000   0.0000  -0.0000
  84 C_b :1s     0.0000   0.0083   0.0655  -0.0000   0.0000  -0.0000   0.0000
  85 C_b :1s    -0.0000  -0.0529   0.0984   0.0000   0.0000  -0.0000   0.0000
  86 C_b :1s    -0.0000   0.1357  -0.1530   0.0000  -0.0000   0.0000  -0.0000
  87 C_b :2px    0.0000  -0.1355   0.0009   0.0000   0.0000  -0.0000   0.0000
  88 C_b :2py   -0.0000  -0.0872  -0.0777   0.0000   0.0000  -0.0000  -0.0000
  89 C_b :2pz   -0.2135  -0.0000   0.0000   0.2398  -0.2664  -0.0201  -0.2466
  93 C_b :2px    0.0000  -0.0019  -0.0194  -0.0000   0.0000   0.0000   0.0000
  94 C_b :2py    0.0000   0.0282   0.0124  -0.0000  -0.0000   0.0000  -0.0000
  96 C_b :2px   -0.0000  -0.0165   0.0183   0.0000  -0.0000   0.0000   0.0000
  97 C_b :2py   -0.0000   0.0643   0.0621   0.0000  -0.0000   0.0000  -0.0000
  98 C_b :2pz    0.0063  -0.0000  -0.0000  -0.0056   0.0048  -0.0141   0.0022
  99 C_b :2px   -0.0000   0.0147  -0.0526   0.0000  -0.0000   0.0000  -0.0000
 100 C_b :2py   -0.0000   0.0538  -0.1011   0.0000   0.0000   0.0000  -0.0000
 101 C_b :2pz    0.0005  -0.0000  -0.0000   0.0020  -0.0016  -0.0273  -0.0062
 112 C_b :3d2-   0.0000   0.0168  -0.0044  -0.0000  -0.0000   0.0000   0.0000
 113 C_b :3d1-  -0.0039  -0.0000  -0.0000   0.0107  -0.0084  -0.0086  -0.0061
 115 C_b :3d1+   0.0053   0.0000  -0.0000  -0.0059   0.0075   0.0022   0.0106
 116 C_b :3d2+  -0.0000   0.0096   0.0102   0.0000  -0.0000   0.0000  -0.0000
 117 C_b :3d2-   0.0000   0.0278  -0.0157   0.0000  -0.0000   0.0000   0.0000
 118 C_b :3d1-   0.0128  -0.0000  -0.0000   0.0123  -0.0057  -0.0083  -0.0150
 119 C_b :3d0    0.0000  -0.0227   0.0118  -0.0000   0.0000  -0.0000   0.0000
 121 C_b :3d2+  -0.0000  -0.0561   0.0111  -0.0000  -0.0000  -0.0000  -0.0000
 142 C_b :4f3+   0.0000  -0.0003  -0.0242  -0.0000   0.0000  -0.0000   0.0000
 162 C_c :1s     0.0000  -0.0360  -0.0044  -0.0000  -0.0000   0.0000   0.0000
 165 C_c :1s     0.0000  -0.0285  -0.0765  -0.0000  -0.0000   0.0000   0.0000
 166 C_c :1s    -0.0000  -0.1142   0.1919   0.0000   0.0000  -0.0000   0.0000
 167 C_c :2px    0.0000   0.0771  -0.0258  -0.0000   0.0000  -0.0000   0.0000
 168 C_c :2py    0.0000   0.0917   0.0506  -0.0000  -0.0000   0.0000  -0.0000
 169 C_c :2pz   -0.2961  -0.0000   0.0000   0.2637  -0.1755  -0.0216   0.0054
 173 C_c :2px    0.0000   0.0211   0.0064  -0.0000   0.0000   0.0000   0.0000
 174 C_c :2py    0.0000   0.0144   0.0038  -0.0000  -0.0000   0.0000  -0.0000
 176 C_c :2px    0.0000   0.0531   0.0512   0.0000   0.0000  -0.0000  -0.0000
 177 C_c :2py    0.0000   0.0719   0.0234  -0.0000  -0.0000   0.0000  -0.0000
 179 C_c :2px    0.0000   0.0894   0.0247  -0.0000   0.0000  -0.0000   0.0000
 180 C_c :2py    0.0000   0.0803   0.0159  -0.0000  -0.0000  -0.0000  -0.0000
 192 C_c :3d2-   0.0000   0.0029  -0.0118   0.0000  -0.0000   0.0000   0.0000
 195 C_c :3d1+  -0.0078  -0.0000   0.0000   0.0144  -0.0082  -0.0059  -0.0002
 196 C_c :3d2+   0.0000   0.0206   0.0151  -0.0000  -0.0000  -0.0000   0.0000
 197 C_c :3d2-  -0.0000  -0.0319   0.0381   0.0000  -0.0000   0.0000  -0.0000
 198 C_c :3d1-  -0.0065  -0.0000   0.0000   0.0119  -0.0128   0.0042  -0.0137
 200 C_c :3d1+   0.0046  -0.0000  -0.0000   0.0237  -0.0146  -0.0075  -0.0161
 201 C_c :3d2+  -0.0000  -0.0587   0.0463   0.0000  -0.0000  -0.0000   0.0000
 242 C_d :1s     0.0000   0.0229  -0.0092  -0.0000   0.0000  -0.0000  -0.0000
 244 C_d :1s    -0.0000  -0.0374  -0.0089   0.0000   0.0000   0.0000  -0.0000
 245 C_d :1s     0.0000  -0.0096  -0.0107  -0.0000  -0.0000  -0.0000  -0.0000
 246 C_d :1s     0.0000  -0.0748  -0.0231  -0.0000   0.0000   0.0000   0.0000
 247 C_d :2px   -0.0000  -0.0682   0.0217  -0.0000  -0.0000   0.0000  -0.0000
 248 C_d :2py   -0.0000  -0.0521  -0.0145  -0.0000  -0.0000   0.0000  -0.0000
 249 C_d :2pz   -0.3132   0.0000  -0.0000   0.2107  -0.0370  -0.0128   0.1706
 253 C_d :2px    0.0000   0.0247   0.0046  -0.0000   0.0000   0.0000   0.0000
 254 C_d :2py    0.0000   0.0049  -0.0162   0.0000  -0.0000  -0.0000   0.0000
 256 C_d :2px   -0.0000   0.0717   0.0044   0.0000   0.0000   0.0000  -0.0000
 258 C_d :2pz    0.0040   0.0000   0.0000  -0.0006  -0.0030   0.0116  -0.0032
 259 C_d :2px   -0.0000   0.0746   0.0256   0.0000   0.0000   0.0000  -0.0000
 260 C_d :2py   -0.0000   0.0113  -0.0014   0.0000  -0.0000   0.0000  -0.0000
 261 C_d :2pz   -0.0050   0.0000   0.0000   0.0024  -0.0024   0.0222   0.0040
 272 C_d :3d2-   0.0000   0.0190  -0.0277  -0.0000   0.0000  -0.0000   0.0000
 273 C_d :3d1-  -0.0069  -0.0000   0.0000   0.0113  -0.0007   0.0002   0.0062
 277 C_d :3d2-   0.0000   0.0162  -0.0108  -0.0000   0.0000  -0.0000   0.0000
 278 C_d :3d1-   0.0039  -0.0000  -0.0000   0.0264  -0.0109  -0.0081  -0.0086
 279 C_d :3d0   -0.0000   0.0160  -0.0074   0.0000  -0.0000   0.0000  -0.0000
 280 C_d :3d1+  -0.0048  -0.0000   0.0000   0.0214  -0.0151  -0.0105  -0.0170
 281 C_d :3d2+   0.0000  -0.0259  -0.0171   0.0000   0.0000  -0.0000   0.0000
 322 C_e :1s    -0.0000  -0.0173  -0.0055   0.0000   0.0000   0.0000  -0.0000
 324 C_e :1s     0.0000  -0.0047   0.0125  -0.0000   0.0000  -0.0000   0.0000
 325 C_e :1s    -0.0000   0.0322  -0.0586   0.0000  -0.0000   0.0000  -0.0000
 326 C_e :1s    -0.0000  -0.0424  -0.0059   0.0000   0.0000  -0.0000   0.0000
 327 C_e :2px   -0.0000   0.0335   0.0030   0.0000  -0.0000   0.0000  -0.0000
 328 C_e :2py    0.0000   0.0515   0.0114   0.0000   0.0000  -0.0000   0.0000
 329 C_e :2pz   -0.3196   0.0000  -0.0000   0.0823   0.1881   0.0041   0.2882
 333 C_e :2px    0.0000   0.0031  -0.0123  -0.0000  -0.0000   0.0000  -0.0000
 334 C_e :2py    0.0000   0.0027  -0.0168   0.0000   0.0000  -0.0000   0.0000
 336 C_e :2px   -0.0000  -0.0262  -0.0034   0.0000  -0.0000   0.0000  -0.0000
 337 C_e :2py    0.0000  -0.0126   0.0469   0.0000   0.0000  -0.0000   0.0000
 340 C_e :2py    0.0000   0.0067  -0.0254   0.0000   0.0000  -0.0000   0.0000
 353 C_e :3d1-   0.0064  -0.0000   0.0000   0.0018  -0.0083   0.0002  -0.0109
 355 C_e :3d1+  -0.0110   0.0000   0.0000   0.0105   0.0057   0.0015   0.0096
 356 C_e :3d2+   0.0000   0.0145  -0.0162  -0.0000   0.0000  -0.0000   0.0000
 357 C_e :3d2-  -0.0000   0.0004  -0.0132   0.0000   0.0000  -0.0000   0.0000
 358 C_e :3d1-  -0.0131  -0.0000   0.0000   0.0243  -0.0164  -0.0006  -0.0132
 360 C_e :3d1+  -0.0059  -0.0000   0.0000   0.0354  -0.0074   0.0038   0.0002
 361 C_e :3d2+   0.0000  -0.0128  -0.0273   0.0000  -0.0000   0.0000   0.0000
 404 C_f :1s    -0.0000  -0.0067   0.0179   0.0000  -0.0000  -0.0000  -0.0000
 405 C_f :1s    -0.0000   0.0623   0.0387   0.0000   0.0000  -0.0000   0.0000
 406 C_f :1s     0.0000  -0.0121  -0.0556  -0.0000   0.0000   0.0000   0.0000
 407 C_f :2px    0.0000  -0.0295  -0.0014  -0.0000   0.0000  -0.0000   0.0000
 408 C_f :2py    0.0000  -0.0281  -0.0000  -0.0000   0.0000  -0.0000   0.0000
 409 C_f :2pz   -0.2988   0.0000  -0.0000  -0.0236   0.2684   0.0142   0.1890
 413 C_f :2px    0.0000   0.0141  -0.0100  -0.0000  -0.0000   0.0000  -0.0000
 416 C_f :2px    0.0000   0.0112  -0.0514  -0.0000  -0.0000   0.0000  -0.0000
 417 C_f :2py    0.0000  -0.0020  -0.0322  -0.0000   0.0000  -0.0000   0.0000
 419 C_f :2px    0.0000   0.0271  -0.0070  -0.0000  -0.0000  -0.0000   0.0000
 420 C_f :2py    0.0000   0.0538   0.0157  -0.0000   0.0000  -0.0000  -0.0000
 421 C_f :2pz   -0.0004   0.0000  -0.0000   0.0011   0.0046  -0.0135   0.0038
 432 C_f :3d2-   0.0000  -0.0133   0.0076  -0.0000   0.0000  -0.0000   0.0000
 435 C_f :3d1+   0.0073   0.0000   0.0000   0.0065  -0.0117   0.0001  -0.0110
 437 C_f :3d2-   0.0000  -0.0366  -0.0028  -0.0000  -0.0000  -0.0000   0.0000
 438 C_f :3d1-  -0.0017  -0.0000   0.0000   0.0285   0.0050  -0.0042   0.0037
 440 C_f :3d1+  -0.0135  -0.0000   0.0000   0.0323  -0.0116  -0.0037  -0.0059
 441 C_f :3d2+  -0.0000  -0.0281   0.0088   0.0000  -0.0000   0.0000  -0.0000
 485 C_g :1s     0.0000   0.0373   0.0122  -0.0000  -0.0000   0.0000  -0.0000
 486 C_g :1s    -0.0000  -0.0069   0.0101  -0.0000  -0.0000   0.0000   0.0000
 487 C_g :2px   -0.0000   0.0170   0.0023   0.0000   0.0000  -0.0000  -0.0000
 488 C_g :2py   -0.0000   0.0275   0.0005  -0.0000  -0.0000   0.0000  -0.0000
 489 C_g :2pz   -0.2623  -0.0000  -0.0000  -0.1731   0.2670   0.0222  -0.0991
 496 C_g :2px   -0.0000   0.0200  -0.0032   0.0000   0.0000  -0.0000  -0.0000
 497 C_g :2py   -0.0000   0.0170   0.0045   0.0000  -0.0000   0.0000  -0.0000
 499 C_g :2px   -0.0000   0.0331  -0.0049   0.0000   0.0000  -0.0000  -0.0000
 500 C_g :2py   -0.0000   0.0156   0.0060   0.0000  -0.0000   0.0000  -0.0000
 513 C_g :3d1-   0.0033   0.0000   0.0000   0.0098  -0.0100  -0.0010   0.0011
 515 C_g :3d1+  -0.0106  -0.0000  -0.0000   0.0007   0.0119   0.0000  -0.0061
 518 C_g :3d1-  -0.0190  -0.0000   0.0000   0.0260  -0.0022  -0.0033   0.0045
 520 C_g :3d1+  -0.0121  -0.0000   0.0000   0.0320   0.0148  -0.0005  -0.0027
 521 C_g :3d2+  -0.0000  -0.0239  -0.0106  -0.0000  -0.0000   0.0000  -0.0000
 565 C_h :1s    -0.0000   0.0082   0.0189   0.0000   0.0000   0.0000  -0.0000
 566 C_h :1s    -0.0000  -0.0355   0.0478   0.0000   0.0000   0.0000   0.0000
 567 C_h :2px    0.0000  -0.0147  -0.0019   0.0000   0.0000   0.0000   0.0000
 568 C_h :2py   -0.0000  -0.0145  -0.0003  -0.0000  -0.0000   0.0000   0.0000
 569 C_h :2pz   -0.2252  -0.0000  -0.0000  -0.2459   0.1691   0.0185  -0.2390
 576 C_h :2px    0.0000  -0.0035  -0.0268   0.0000   0.0000  -0.0000   0.0000
 577 C_h :2py   -0.0000  -0.0289  -0.0060   0.0000   0.0000  -0.0000   0.0000
 579 C_h :2px   -0.0000   0.0214  -0.0000   0.0000   0.0000   0.0000   0.0000
 580 C_h :2py    0.0000   0.0036  -0.0137  -0.0000  -0.0000   0.0000   0.0000
 593 C_h :3d1-  -0.0066  -0.0000  -0.0000  -0.0041   0.0068   0.0011  -0.0108
 595 C_h :3d1+   0.0032  -0.0000  -0.0000   0.0140  -0.0062  -0.0019   0.0067
 598 C_h :3d1-  -0.0055  -0.0000   0.0000   0.0204   0.0165   0.0013  -0.0103
 599 C_h :3d0    0.0000   0.0122  -0.0082  -0.0000   0.0000  -0.0000   0.0000
 600 C_h :3d1+  -0.0191  -0.0000   0.0000   0.0307   0.0087  -0.0050   0.0005
 645 C_i :1s     0.0000   0.0144  -0.0373   0.0000  -0.0000   0.0000  -0.0000
 646 C_i :1s     0.0000  -0.0114  -0.0261   0.0000   0.0000  -0.0000   0.0000
 648 C_i :2py    0.0000   0.0143   0.0005   0.0000   0.0000  -0.0000   0.0000
 649 C_i :2pz   -0.1753   0.0000   0.0000  -0.3114  -0.0423   0.0039  -0.2705
 656 C_i :2px    0.0000  -0.0178   0.0361  -0.0000  -0.0000   0.0000  -0.0000
 659 C_i :2px    0.0000   0.0238   0.0051  -0.0000  -0.0000   0.0000  -0.0000
 660 C_i :2py    0.0000   0.0314   0.0102  -0.0000   0.0000  -0.0000   0.0000
 673 C_i :3d1-   0.0002  -0.0000  -0.0000   0.0128   0.0022  -0.0003   0.0087
 675 C_i :3d1+  -0.0084  -0.0000  -0.0000  -0.0072   0.0020   0.0009  -0.0112
 677 C_i :3d2-   0.0000  -0.0123   0.0168   0.0000   0.0000  -0.0000   0.0000
 678 C_i :3d1-  -0.0218  -0.0000   0.0000   0.0168   0.0133   0.0008  -0.0036
 680 C_i :3d1+  -0.0143  -0.0000   0.0000   0.0161   0.0199   0.0032  -0.0181
 681 C_i :3d2+   0.0000  -0.0072  -0.0136  -0.0000   0.0000  -0.0000  -0.0000
 725 C_j :1s    -0.0000   0.0201  -0.0288  -0.0000  -0.0000   0.0000  -0.0000
 726 C_j :1s     0.0000  -0.0228   0.0402  -0.0000   0.0000  -0.0000   0.0000
 729 C_j :2pz   -0.1375   0.0000   0.0000  -0.3093  -0.1753  -0.0078  -0.1361
 736 C_j :2px   -0.0000  -0.0196  -0.0100  -0.0000  -0.0000   0.0000  -0.0000
 737 C_j :2py    0.0000   0.0117  -0.0142  -0.0000  -0.0000   0.0000  -0.0000
 739 C_j :2px   -0.0000   0.0132  -0.0055   0.0000  -0.0000  -0.0000  -0.0000
 755 C_j :3d1+  -0.0006   0.0000  -0.0000   0.0133   0.0082   0.0005   0.0063
 757 C_j :3d2-   0.0000  -0.0011   0.0114  -0.0000  -0.0000   0.0000   0.0000
 758 C_j :3d1-  -0.0039  -0.0000   0.0000   0.0087   0.0118  -0.0016  -0.0154
 760 C_j :3d1+  -0.0210  -0.0000   0.0000   0.0162   0.0180   0.0004  -0.0134
 761 C_j :3d2+   0.0000   0.0167  -0.0130  -0.0000  -0.0000   0.0000  -0.0000
 805 C_k :1s    -0.0000   0.0189   0.0530   0.0000   0.0000  -0.0000   0.0000
 806 C_k :1s    -0.0000  -0.0041  -0.0464  -0.0000  -0.0000  -0.0000   0.0000
 809 C_k :2pz   -0.0901  -0.0000   0.0000  -0.2660  -0.3018  -0.0211   0.1539
 816 C_k :2px   -0.0000  -0.0047   0.0110   0.0000   0.0000  -0.0000   0.0000
 833 C_k :3d1-  -0.0029   0.0000   0.0000   0.0087   0.0108   0.0005  -0.0051
 838 C_k :3d1-  -0.0209  -0.0000   0.0000   0.0032   0.0085  -0.0003  -0.0164
 840 C_k :3d1+  -0.0108  -0.0000   0.0000   0.0024   0.0084  -0.0002  -0.0166
 841 C_k :3d2+   0.0000   0.0070  -0.0157  -0.0000  -0.0000   0.0000  -0.0000
 885 C_l :1s     0.0000   0.0261  -0.0042   0.0000   0.0000  -0.0000   0.0000
 886 C_l :1s    -0.0000  -0.0589   0.0262  -0.0000  -0.0000   0.0000   0.0000
 889 C_l :2pz   -0.0560  -0.0000   0.0000  -0.1961  -0.2877  -0.0221   0.2660
 896 C_l :2px    0.0000   0.0109   0.0244  -0.0000   0.0000  -0.0000   0.0000
 899 C_l :2px    0.0000   0.0232   0.0130  -0.0000  -0.0000  -0.0000  -0.0000
 900 C_l :2py    0.0000   0.0083   0.0105  -0.0000  -0.0000   0.0000  -0.0000
 915 C_l :3d1+  -0.0031   0.0000   0.0000   0.0060   0.0108   0.0005  -0.0099
 920 C_l :3d1+  -0.0188  -0.0000   0.0000   0.0006   0.0061  -0.0011  -0.0183
 965 C_m :1s     0.0000  -0.0019   0.0119  -0.0000   0.0000   0.0000   0.0000
 966 C_m :1s     0.0000   0.0141  -0.0375  -0.0000  -0.0000   0.0000  -0.0000
 969 C_m :2pz   -0.0101  -0.0000  -0.0000  -0.0706  -0.1599  -0.0137   0.2471
 976 C_m :2px   -0.0000   0.0065   0.0160   0.0000   0.0000   0.0000   0.0000
 979 C_m :2px   -0.0000  -0.0067  -0.0150   0.0000   0.0000   0.0000  -0.0000
 993 C_m :3d1-  -0.0037  -0.0000   0.0000   0.0021   0.0062   0.0006  -0.0111
 998 C_m :3d1-  -0.0162  -0.0000  -0.0000  -0.0026  -0.0017  -0.0006  -0.0091
1045 C_n :1s    -0.0000  -0.0179  -0.0224   0.0000  -0.0000   0.0000  -0.0000
1046 C_n :1s    -0.0000  -0.0129   0.0264   0.0000   0.0000  -0.0000  -0.0000
1049 C_n :2pz    0.0241   0.0000  -0.0000   0.0366   0.0018  -0.0009   0.0632
1056 C_n :2px   -0.0000  -0.0056   0.0158  -0.0000  -0.0000   0.0000   0.0000
1057 C_n :2py   -0.0000   0.0113  -0.0027   0.0000  -0.0000   0.0000  -0.0000
1075 C_n :3d1+  -0.0006  -0.0000   0.0000   0.0029   0.0077   0.0008  -0.0139
1129 N_a :2pz    0.0642  -0.0000  -0.0000   0.1672   0.2209   0.0172  -0.2458
1138 N_a :2pz    0.0009  -0.0000  -0.0000   0.0074   0.0113   0.0012  -0.0154
1202 N_b :1s    -0.0000  -0.0253   0.0073   0.0000   0.0000   0.0000   0.0000
1205 N_b :1s    -0.0000  -0.1015  -0.0100   0.0000  -0.0000   0.0000   0.0000
1206 N_b :1s    -0.0000  -0.1582   0.0623   0.0000  -0.0000  -0.0000  -0.0000
1207 N_b :2px    0.0000  -0.0679   0.1143  -0.0000   0.0000  -0.0000   0.0000
1208 N_b :2py    0.0000  -0.2663   0.0602  -0.0000  -0.0000   0.0000  -0.0000
1209 N_b :2pz    0.0299   0.0000  -0.0000  -0.0302   0.0283  -0.0051   0.0171
1213 N_b :2px   -0.0000   0.0124   0.0098   0.0000  -0.0000   0.0000  -0.0000
1214 N_b :2py   -0.0000   0.0096  -0.0157  -0.0000   0.0000  -0.0000   0.0000
1216 N_b :2px   -0.0000  -0.0336   0.0641   0.0000  -0.0000  -0.0000   0.0000
1217 N_b :2py   -0.0000  -0.1089   0.0130   0.0000   0.0000   0.0000   0.0000
1218 N_b :2pz   -0.0104   0.0000  -0.0000   0.0086  -0.0122   0.0001  -0.0104
1219 N_b :2px   -0.0000  -0.0492  -0.0621  -0.0000   0.0000   0.0000   0.0000
1220 N_b :2py   -0.0000  -0.0815   0.0250   0.0000  -0.0000  -0.0000  -0.0000
1227 N_b :3d2-  -0.0000  -0.0275  -0.0105  -0.0000   0.0000   0.0000   0.0000
1228 N_b :3d1-  -0.0030  -0.0000   0.0000   0.0037  -0.0043  -0.0112  -0.0063
1230 N_b :3d1+  -0.0016  -0.0000  -0.0000   0.0021  -0.0042   0.0280  -0.0021
1231 N_b :3d2+  -0.0000   0.0186  -0.0247   0.0000   0.0000   0.0000  -0.0000
1232 N_b :3d2-   0.0000  -0.0119   0.0180   0.0000   0.0000  -0.0000   0.0000
1233 N_b :3d1-  -0.0044  -0.0000   0.0000   0.0051  -0.0065  -0.0125  -0.0094
1235 N_b :3d1+  -0.0017  -0.0000  -0.0000   0.0023  -0.0051   0.0324  -0.0032
1236 N_b :3d2+  -0.0000   0.0397   0.0027   0.0000   0.0000  -0.0000   0.0000
1237 N_b :3d2-   0.0000   0.0307   0.0790   0.0000  -0.0000  -0.0000  -0.0000
1240 N_b :3d1+  -0.0003  -0.0000   0.0000   0.0002   0.0002  -0.0175  -0.0016
1241 N_b :3d2+  -0.0000   0.0135   0.0823   0.0000  -0.0000  -0.0000   0.0000
1249 N_b :4f3-   0.0000   0.0039   0.0117  -0.0000   0.0000  -0.0000   0.0000
1285 O_a :1s    -0.0000  -0.0375   0.0019   0.0000  -0.0000   0.0000  -0.0000
1286 O_a :1s    -0.0000  -0.0416  -0.1136   0.0000  -0.0000   0.0000   0.0000
1287 O_a :2px   -0.0000   0.0671  -0.2667   0.0000  -0.0000   0.0000  -0.0000
1288 O_a :2py    0.0000   0.7722   0.4110   0.0000  -0.0000   0.0000   0.0000
1289 O_a :2pz    0.0592  -0.0000  -0.0000  -0.0739   0.1265  -0.6362   0.0822
1295 O_a :2pz    0.0009  -0.0000   0.0000  -0.0010   0.0018  -0.0103   0.0010
1297 O_a :2py    0.0000   0.0882   0.0483   0.0000  -0.0000  -0.0000  -0.0000
1298 O_a :2pz    0.0060  -0.0000  -0.0000  -0.0061   0.0121  -0.0700   0.0063
1299 O_a :2px   -0.0000  -0.0044  -0.0251   0.0000  -0.0000   0.0000  -0.0000
1300 O_a :2py    0.0000   0.0514   0.0247  -0.0000   0.0000  -0.0000   0.0000
1301 O_a :2pz    0.0019  -0.0000  -0.0000  -0.0035   0.0059  -0.0338   0.0039
1312 O_a :3d2-   0.0000   0.0183   0.0096   0.0000  -0.0000   0.0000  -0.0000
1315 O_a :3d1+   0.0024  -0.0000  -0.0000  -0.0027   0.0043  -0.0218   0.0022
1317 O_a :3d2-   0.0000   0.0274   0.0098   0.0000  -0.0000  -0.0000  -0.0000
1320 O_a :3d1+   0.0021  -0.0000  -0.0000  -0.0022   0.0036  -0.0185   0.0014
1362 O_b :1s     0.0000  -0.0109   0.0055   0.0000  -0.0000   0.0000  -0.0000
1365 O_b :1s     0.0000  -0.0136   0.0229   0.0000   0.0000  -0.0000  -0.0000
1366 O_b :1s    -0.0000   0.0411   0.1176   0.0000   0.0000  -0.0000   0.0000
1367 O_b :2px    0.0000   0.0628  -0.6565  -0.0000  -0.0000   0.0000  -0.0000
1368 O_b :2py    0.0000   0.3926  -0.4953  -0.0000   0.0000   0.0000   0.0000
1369 O_b :2pz    0.0477  -0.0000   0.0000  -0.0540   0.0338   0.6532   0.1031
1375 O_b :2pz    0.0005   0.0000   0.0000  -0.0004   0.0002   0.0105   0.0014
1376 O_b :2px    0.0000   0.0294  -0.0789  -0.0000  -0.0000   0.0000  -0.0000
1377 O_b :2py    0.0000   0.0353  -0.0783  -0.0000   0.0000   0.0000   0.0000
1378 O_b :2pz    0.0057  -0.0000   0.0000  -0.0058   0.0049   0.0702   0.0125
1379 O_b :2px    0.0000   0.0125  -0.0479  -0.0000  -0.0000   0.0000  -0.0000
1380 O_b :2py    0.0000   0.0339  -0.0168  -0.0000   0.0000   0.0000   0.0000
1381 O_b :2pz    0.0007  -0.0000   0.0000  -0.0035   0.0018   0.0365   0.0067
1393 O_b :3d1-   0.0014  -0.0000   0.0000  -0.0012   0.0005   0.0181   0.0019
1395 O_b :3d1+  -0.0013   0.0000  -0.0000   0.0014  -0.0011  -0.0126  -0.0024
1396 O_b :3d2+  -0.0000  -0.0064   0.0214   0.0000   0.0000  -0.0000  -0.0000
1398 O_b :3d1-   0.0017  -0.0000   0.0000  -0.0018   0.0014   0.0169   0.0031
1401 O_b :3d2+  -0.0000  -0.0158   0.0288   0.0000  -0.0000  -0.0000  -0.0000
1441 H_a :1s    -0.0000   0.0734  -0.1496   0.0000   0.0000  -0.0000   0.0000
1443 H_a :1s     0.0000   0.0163   0.0180  -0.0000  -0.0000   0.0000  -0.0000
1444 H_a :1s     0.0000   0.1116  -0.1150  -0.0000  -0.0000   0.0000  -0.0000
1445 H_a :1s    -0.0000   0.0163   0.0154   0.0000  -0.0000   0.0000  -0.0000
1455 H_a :2px    0.0000   0.0136  -0.0041  -0.0000  -0.0000   0.0000  -0.0000
1456 H_a :2py   -0.0000  -0.0040   0.0333   0.0000  -0.0000  -0.0000   0.0000
1457 H_a :2pz    0.0084  -0.0000  -0.0000   0.0044  -0.0018   0.0102  -0.0072
1487 H_b :1s    -0.0000   0.0217   0.0505   0.0000  -0.0000  -0.0000   0.0000
1489 H_b :1s     0.0000   0.0334  -0.0326  -0.0000   0.0000   0.0000  -0.0000
1490 H_b :1s     0.0000   0.0411   0.0224  -0.0000  -0.0000   0.0000   0.0000
1491 H_b :1s    -0.0000   0.0302  -0.0032  -0.0000   0.0000  -0.0000  -0.0000
1498 H_b :2px    0.0000  -0.0088   0.0112   0.0000   0.0000  -0.0000   0.0000
1501 H_b :2px    0.0000   0.0132   0.0199   0.0000   0.0000  -0.0000   0.0000
1502 H_b :2py    0.0000   0.0300   0.0207   0.0000   0.0000   0.0000   0.0000
1503 H_b :2pz    0.0106   0.0000  -0.0000   0.0046   0.0006  -0.0032  -0.0049
1514 H_b :3d2-   0.0000  -0.0027   0.0112   0.0000  -0.0000   0.0000   0.0000
1533 H_c :1s     0.0000   0.0013   0.0626  -0.0000  -0.0000   0.0000  -0.0000
1536 H_c :1s    -0.0000  -0.0571   0.0847   0.0000   0.0000  -0.0000  -0.0000
1537 H_c :1s     0.0000   0.0105  -0.0056  -0.0000   0.0000  -0.0000   0.0000
1547 H_c :2px   -0.0000  -0.0228   0.0145   0.0000  -0.0000  -0.0000   0.0000
1548 H_c :2py    0.0000  -0.0185  -0.0087  -0.0000  -0.0000   0.0000   0.0000
1579 H_d :1s     0.0000   0.0154   0.0298  -0.0000   0.0000  -0.0000   0.0000
1581 H_d :1s     0.0000   0.0169  -0.0401  -0.0000  -0.0000  -0.0000   0.0000
1582 H_d :1s     0.0000   0.0076  -0.0599  -0.0000   0.0000  -0.0000   0.0000
1583 H_d :1s    -0.0000  -0.0422  -0.0230  -0.0000  -0.0000   0.0000  -0.0000
1593 H_d :2px   -0.0000   0.0207   0.0154   0.0000  -0.0000   0.0000  -0.0000
1594 H_d :2py    0.0000   0.0109   0.0100  -0.0000  -0.0000  -0.0000  -0.0000
1625 H_e :1s     0.0000   0.0114   0.0077   0.0000   0.0000  -0.0000   0.0000
1628 H_e :1s     0.0000  -0.0112  -0.0747  -0.0000  -0.0000  -0.0000   0.0000
1629 H_e :1s    -0.0000  -0.0372   0.0100   0.0000  -0.0000   0.0000  -0.0000
1639 H_e :2px    0.0000  -0.0115  -0.0200   0.0000  -0.0000   0.0000   0.0000
1641 H_e :2pz    0.0036   0.0000  -0.0000   0.0041   0.0077   0.0030   0.0100
1671 H_f :1s     0.0000   0.0131  -0.0000  -0.0000  -0.0000  -0.0000   0.0000
1673 H_f :1s    -0.0000  -0.0268   0.0136   0.0000   0.0000  -0.0000   0.0000
1674 H_f :1s    -0.0000  -0.0496   0.0077   0.0000   0.0000  -0.0000   0.0000
1675 H_f :1s     0.0000   0.0322   0.0241   0.0000   0.0000  -0.0000   0.0000
1687 H_f :2pz    0.0043   0.0000  -0.0000   0.0012   0.0112   0.0007   0.0065
1719 H_g :1s     0.0000  -0.0056  -0.0110   0.0000   0.0000  -0.0000   0.0000
1720 H_g :1s     0.0000  -0.0130   0.0025  -0.0000   0.0000  -0.0000   0.0000
1721 H_g :1s     0.0000   0.0346  -0.0044   0.0000   0.0000  -0.0000   0.0000
1731 H_g :2px   -0.0000  -0.0091  -0.0106  -0.0000  -0.0000   0.0000  -0.0000
1733 H_g :2pz    0.0049   0.0000  -0.0000  -0.0016   0.0112   0.0009  -0.0042
1767 H_h :1s    -0.0000  -0.0242  -0.0195  -0.0000  -0.0000   0.0000  -0.0000
1811 H_i :1s    -0.0000  -0.0117   0.0138  -0.0000  -0.0000   0.0000  -0.0000
1812 H_i :1s    -0.0000  -0.0328   0.0522   0.0000  -0.0000  -0.0000  -0.0000
1813 H_i :1s    -0.0000  -0.0283  -0.0006  -0.0000  -0.0000   0.0000  -0.0000
1824 H_i :2py    0.0000   0.0012  -0.0142  -0.0000  -0.0000  -0.0000  -0.0000
1858 H_j :1s     0.0000   0.0478   0.0052   0.0000   0.0000  -0.0000   0.0000
1859 H_j :1s    -0.0000   0.0115   0.0154   0.0000   0.0000  -0.0000  -0.0000
1869 H_j :2px   -0.0000  -0.0165   0.0110   0.0000   0.0000  -0.0000   0.0000
1904 H_k :1s     0.0000   0.0071  -0.0239  -0.0000   0.0000   0.0000  -0.0000
1905 H_k :1s     0.0000   0.0151  -0.0011   0.0000   0.0000  -0.0000   0.0000
1915 H_k :2px    0.0000   0.0043  -0.0103  -0.0000  -0.0000   0.0000  -0.0000
1950 H_l :1s    -0.0000  -0.0089  -0.0194  -0.0000  -0.0000  -0.0000  -0.0000
1951 H_l :1s     0.0000  -0.0125  -0.0048  -0.0000  -0.0000   0.0000   0.0000
1996 H_m :1s    -0.0000   0.0022   0.0265   0.0000  -0.0000   0.0000  -0.0000
2009 H_m :2pz    0.0103  -0.0000  -0.0000   0.0011   0.0004   0.0009   0.0074
2042 H_n :1s     0.0000   0.0204  -0.0084   0.0000   0.0000  -0.0000   0.0000

    Orbital        63       64       65       66       67       68       69
   4 C_a :1s     0.0000   0.0000   0.0000  -0.1115  -0.0000  -0.0907   0.3284
   5 C_a :1s    -0.0000  -0.0000  -0.0000   0.3196   0.0000   0.8610   0.6579
   6 C_a :1s    -0.0000  -0.0000  -0.0000   2.8828   0.0000   5.2305  -4.6155
   9 C_a :2pz   -0.3151  -0.2762   0.1541   0.0000  -0.2493  -0.0000   0.0000
  13 C_a :2px    0.0000   0.0000  -0.0000  -0.0838   0.0000  -0.0485   0.1103
  14 C_a :2py   -0.0000   0.0000   0.0000   0.0091  -0.0000   0.0714  -0.0536
  16 C_a :2px    0.0000   0.0000   0.0000  -0.5498  -0.0000   0.4162   1.7981
  17 C_a :2py   -0.0000   0.0000   0.0000   0.5984  -0.0000   0.3032  -1.4698
  18 C_a :2pz   -0.0134  -0.0174   0.0141   0.0000  -0.0407  -0.0000   0.0000
  19 C_a :2px   -0.0000   0.0000  -0.0000   0.7955   0.0000   0.5464  -0.8952
  20 C_a :2py   -0.0000   0.0000   0.0000  -0.0346   0.0000  -0.7741  -0.1818
  21 C_a :2pz   -0.0072  -0.0100   0.0083   0.0000  -0.0983  -0.0000   0.0000
  32 C_a :3d2-  -0.0000  -0.0000  -0.0000  -0.0249   0.0000   0.0064  -0.0697
  33 C_a :3d1-   0.0029   0.0014  -0.0008  -0.0000   0.0200   0.0000  -0.0000
  34 C_a :3d0   -0.0000   0.0000   0.0000  -0.0496  -0.0000  -0.0523   0.0563
  35 C_a :3d1+  -0.0097  -0.0046   0.0009   0.0000   0.0273   0.0000   0.0000
  36 C_a :3d2+  -0.0000   0.0000   0.0000  -0.0147  -0.0000   0.0307   0.0367
  37 C_a :3d2-   0.0000   0.0000  -0.0000   0.0075   0.0000   0.1214  -0.1001
  38 C_a :3d1-  -0.0038  -0.0045   0.0020  -0.0000   0.0190   0.0000   0.0000
  39 C_a :3d0   -0.0000   0.0000   0.0000  -0.1578  -0.0000  -0.1245   0.2919
  40 C_a :3d1+  -0.0102  -0.0064   0.0028   0.0000   0.0348  -0.0000   0.0000
  41 C_a :3d2+   0.0000   0.0000  -0.0000   0.2863   0.0000  -0.0951  -0.3656
  49 C_a :4f3-   0.0000   0.0000   0.0000   0.0076  -0.0000   0.0078  -0.0157
  56 C_a :4f3-   0.0000  -0.0000   0.0000   0.0154  -0.0000   0.0557  -0.0983
  58 C_a :4f1-  -0.0000  -0.0000  -0.0000  -0.0179   0.0000  -0.0072   0.0359
  62 C_a :4f3+  -0.0000   0.0000   0.0000  -0.0011  -0.0000   0.0267  -0.0287
[...]
      ----------------------------------------------------------------
         1    3.04194D-02  0.00D+00  3.04D-02  3.61D+01    0.00000D+00
         2    3.17326D-02  0.00D+00  3.17D-02  3.75D+01    1.90000D-02
         3    3.62909D-02  0.00D+00  3.63D-02  4.20D+01    3.80000D-02

 *** THE REQUESTED    3 SOLUTION VECTORS CONVERGED

 Convergence of RSP solution vectors, threshold = 1.00D-03
 ---------------------------------------------------------------
 (dimension of paired reduced space:   42)
 RSP solution vector no.    1; norm of residual   8.43D-04
 RSP solution vector no.    2; norm of residual   8.47D-04
 RSP solution vector no.    3; norm of residual   8.63D-04

 *** RSPCTL MICROITERATIONS CONVERGED

@ QRLRVE: SINGLET SOLUTION FOR SYMMETRY    1  ( A  )    LABEL   YDIPLEN     FREQUENCY   0.000000D+00

@ QRLRVE:  << XDIPLEN  ; YDIPLEN  >> (   0.00000):     380.987511674    

@ QRLRVE:  << YDIPLEN  ; YDIPLEN  >> (   0.00000):     413.616392168    

@ QRLRVE:  << ZDIPLEN  ; YDIPLEN  >> (   0.00000):    1.229249927015E-15

@ QRLRVE: SINGLET SOLUTION FOR SYMMETRY    1  ( A  )    LABEL   YDIPLEN     FREQUENCY   0.190000D-01

@ QRLRVE:  << XDIPLEN  ; YDIPLEN  >> (   0.01900):     391.812005704    

@ QRLRVE:  << YDIPLEN  ; YDIPLEN  >> (   0.01900):     420.983166736    

@ QRLRVE:  << ZDIPLEN  ; YDIPLEN  >> (   0.01900):    1.331557734927E-15

@ QRLRVE: SINGLET SOLUTION FOR SYMMETRY    1  ( A  )    LABEL   YDIPLEN     FREQUENCY   0.380000D-01

@ QRLRVE:  << XDIPLEN  ; YDIPLEN  >> (   0.03800):     428.333019274    

@ QRLRVE:  << YDIPLEN  ; YDIPLEN  >> (   0.03800):     445.767490163    

@ QRLRVE:  << ZDIPLEN  ; YDIPLEN  >> (   0.03800):    1.710717697229E-15


 QRLRVE -- linear response calculation for symmetry  1  ( A  )
 QRLRVE -- operator label : ZDIPLEN 
 QRLRVE -- operator spin  :   0
 QRLRVE -- frequencies :  0.000000  0.019000  0.038000



 ---  SOLVING SETS OF LINEAR EQUATIONS FOR LINEAR RESPONSE PROPERTIES ---

 Operator symmetry = 1  ( A  ); triplet =   F


 ** RSPCTL MICROITERATION NUMBER    1

       No.  Residual tot.,    conf., and orb.    Bnorm      Frequency 
      ----------------------------------------------------------------
         1    3.49864D+00  0.00D+00  3.50D+00  8.62D+00    0.00000D+00
         2    3.50142D+00  0.00D+00  3.50D+00  8.65D+00    1.90000D-02
         3    3.50982D+00  0.00D+00  3.51D+00  8.72D+00    3.80000D-02

 ** RSPCTL MICROITERATION NUMBER    2

       No.  Residual tot.,    conf., and orb.    Bnorm      Frequency 
      ----------------------------------------------------------------
         1    9.15106D-01  0.00D+00  9.15D-01  9.03D+00    0.00000D+00
         2    9.17208D-01  0.00D+00  9.17D-01  9.06D+00    1.90000D-02
         3    9.23587D-01  0.00D+00  9.24D-01  9.14D+00    3.80000D-02

 ** RSPCTL MICROITERATION NUMBER    3

       No.  Residual tot.,    conf., and orb.    Bnorm      Frequency 
      ----------------------------------------------------------------
         1    1.84851D-01  0.00D+00  1.85D-01  9.06D+00    0.00000D+00
         2    1.85976D-01  0.00D+00  1.86D-01  9.09D+00    1.90000D-02
         3    1.89411D-01  0.00D+00  1.89D-01  9.18D+00    3.80000D-02

 ** RSPCTL MICROITERATION NUMBER    4

       No.  Residual tot.,    conf., and orb.    Bnorm      Frequency 
      ----------------------------------------------------------------
         1    5.44075D-02  0.00D+00  5.44D-02  9.07D+00    0.00000D+00
         2    5.52023D-02  0.00D+00  5.52D-02  9.10D+00    1.90000D-02
         3    5.76934D-02  0.00D+00  5.77D-02  9.18D+00    3.80000D-02

 ** RSPCTL MICROITERATION NUMBER    5

       No.  Residual tot.,    conf., and orb.    Bnorm      Frequency 
      ----------------------------------------------------------------
         1    1.99630D-02  0.00D+00  2.00D-02  9.07D+00    0.00000D+00
         2    2.05222D-02  0.00D+00  2.05D-02  9.10D+00    1.90000D-02
         3    2.22892D-02  0.00D+00  2.23D-02  9.19D+00    3.80000D-02

 ** RSPCTL MICROITERATION NUMBER    6

       No.  Residual tot.,    conf., and orb.    Bnorm      Frequency 
      ----------------------------------------------------------------
         1    7.97621D-03  0.00D+00  7.98D-03  9.07D+00    0.00000D+00
         2    8.28696D-03  0.00D+00  8.29D-03  9.10D+00    1.90000D-02
         3    9.28178D-03  0.00D+00  9.28D-03  9.19D+00    3.80000D-02

 ** RSPCTL MICROITERATION NUMBER    7

       No.  Residual tot.,    conf., and orb.    Bnorm      Frequency 
      ----------------------------------------------------------------
         1    2.11816D-03  0.00D+00  2.12D-03  9.07D+00    0.00000D+00
         2    2.21895D-03  0.00D+00  2.22D-03  9.10D+00    1.90000D-02
         3    2.58386D-03  0.00D+00  2.58D-03  9.19D+00    3.80000D-02

 *** THE REQUESTED    3 SOLUTION VECTORS CONVERGED

 Convergence of RSP solution vectors, threshold = 1.00D-03
 ---------------------------------------------------------------
 (dimension of paired reduced space:   38)
 RSP solution vector no.    1; norm of residual   2.34D-04
 RSP solution vector no.    2; norm of residual   2.44D-04
 RSP solution vector no.    3; norm of residual   2.81D-04

 *** RSPCTL MICROITERATIONS CONVERGED

@ QRLRVE: SINGLET SOLUTION FOR SYMMETRY    1  ( A  )    LABEL   ZDIPLEN     FREQUENCY   0.000000D+00

@ QRLRVE:  << XDIPLEN  ; ZDIPLEN  >> (   0.00000):    5.197393507169E-15

@ QRLRVE:  << YDIPLEN  ; ZDIPLEN  >> (   0.00000):   -4.710122875453E-15

@ QRLRVE:  << ZDIPLEN  ; ZDIPLEN  >> (   0.00000):     118.132475876    

@ QRLRVE: SINGLET SOLUTION FOR SYMMETRY    1  ( A  )    LABEL   ZDIPLEN     FREQUENCY   0.190000D-01

@ QRLRVE:  << XDIPLEN  ; ZDIPLEN  >> (   0.01900):    5.355033503865E-15

@ QRLRVE:  << YDIPLEN  ; ZDIPLEN  >> (   0.01900):   -4.790147725247E-15

@ QRLRVE:  << ZDIPLEN  ; ZDIPLEN  >> (   0.01900):     118.282544055    

@ QRLRVE: SINGLET SOLUTION FOR SYMMETRY    1  ( A  )    LABEL   ZDIPLEN     FREQUENCY   0.380000D-01

@ QRLRVE:  << XDIPLEN  ; ZDIPLEN  >> (   0.03800):    5.844578690436E-15

@ QRLRVE:  << YDIPLEN  ; ZDIPLEN  >> (   0.03800):   -5.030942175575E-15

@ QRLRVE:  << ZDIPLEN  ; ZDIPLEN  >> (   0.03800):     118.736935863    
 
 ======================================================================
 ---  L I N E A R   R E S P O N S E   F U N C T I O N S --- 
 ======================================================================

 The -<<A;B>>(omega_b) functions from vectors generated
 in a *QUADRA calculation of <<A;B,C>>(omega_b,omega_c)

 Note: the accuracy of off-diagonal elements will be linear
 in the convergence threshold THCLR =  1.00D-03


 Perturbation symmetry.     KSYMOP:           1
 Perturbation spin symmetry.TRPLET:           F
 Orbital variables.         KZWOPT:      135720
 Configuration variables.   KZCONF:           0
 Total number of variables. KZVAR :      135720

@ Singlet linear response function in a.u.

@ A operator, symmetry, frequency:   XDIPLEN    1 -0.000000
@ B operator, symmetry, frequency:   XDIPLEN    1  0.000000

@ Value of linear response -<<A;B>>(omega):     748.689635140966

@ Singlet linear response function in a.u.

@ A operator, symmetry, frequency:   YDIPLEN    1 -0.000000
@ B operator, symmetry, frequency:   XDIPLEN    1  0.000000

@ Value of linear response -<<A;B>>(omega):     380.975536999971

@ Singlet linear response function in a.u.

@ A operator, symmetry, frequency:   ZDIPLEN    1 -0.000000
@ B operator, symmetry, frequency:   XDIPLEN    1  0.000000

@ Value of linear response -<<A;B>>(omega):      -0.000000000000

@ Singlet linear response function in a.u.

@ A operator, symmetry, frequency:   XDIPLEN    1 -0.019000
@ B operator, symmetry, frequency:   XDIPLEN    1  0.019000

@ Value of linear response -<<A;B>>(omega):     765.411210940126

@ Singlet linear response function in a.u.

@ A operator, symmetry, frequency:   YDIPLEN    1 -0.019000
@ B operator, symmetry, frequency:   XDIPLEN    1  0.019000

@ Value of linear response -<<A;B>>(omega):     391.799319686484

@ Singlet linear response function in a.u.

@ A operator, symmetry, frequency:   ZDIPLEN    1 -0.019000
@ B operator, symmetry, frequency:   XDIPLEN    1  0.019000

@ Value of linear response -<<A;B>>(omega):      -0.000000000000

@ Singlet linear response function in a.u.

@ A operator, symmetry, frequency:   XDIPLEN    1 -0.000000
@ B operator, symmetry, frequency:   YDIPLEN    1  0.000000

@ Value of linear response -<<A;B>>(omega):     380.987511674052

@ Singlet linear response function in a.u.

@ A operator, symmetry, frequency:   YDIPLEN    1 -0.000000
@ B operator, symmetry, frequency:   YDIPLEN    1  0.000000

@ Value of linear response -<<A;B>>(omega):     413.616392168234

@ Singlet linear response function in a.u.

@ A operator, symmetry, frequency:   ZDIPLEN    1 -0.000000
@ B operator, symmetry, frequency:   YDIPLEN    1  0.000000

@ Value of linear response -<<A;B>>(omega):       0.000000000000

@ Singlet linear response function in a.u.

@ A operator, symmetry, frequency:   XDIPLEN    1 -0.019000
@ B operator, symmetry, frequency:   YDIPLEN    1  0.019000

@ Value of linear response -<<A;B>>(omega):     391.812005703653

@ Singlet linear response function in a.u.

@ A operator, symmetry, frequency:   YDIPLEN    1 -0.019000
@ B operator, symmetry, frequency:   YDIPLEN    1  0.019000

@ Value of linear response -<<A;B>>(omega):     420.983166736100

@ Singlet linear response function in a.u.

@ A operator, symmetry, frequency:   ZDIPLEN    1 -0.019000
@ B operator, symmetry, frequency:   YDIPLEN    1  0.019000

@ Value of linear response -<<A;B>>(omega):       0.000000000000

@ Singlet linear response function in a.u.

@ A operator, symmetry, frequency:   XDIPLEN    1 -0.000000
@ B operator, symmetry, frequency:   ZDIPLEN    1  0.000000

@ Value of linear response -<<A;B>>(omega):       0.000000000000

@ Singlet linear response function in a.u.

@ A operator, symmetry, frequency:   YDIPLEN    1 -0.000000
@ B operator, symmetry, frequency:   ZDIPLEN    1  0.000000

@ Value of linear response -<<A;B>>(omega):      -0.000000000000

@ Singlet linear response function in a.u.

@ A operator, symmetry, frequency:   ZDIPLEN    1 -0.000000
@ B operator, symmetry, frequency:   ZDIPLEN    1  0.000000

@ Value of linear response -<<A;B>>(omega):     118.132475875629

@ Singlet linear response function in a.u.

@ A operator, symmetry, frequency:   XDIPLEN    1 -0.019000
@ B operator, symmetry, frequency:   ZDIPLEN    1  0.019000

@ Value of linear response -<<A;B>>(omega):       0.000000000000

@ Singlet linear response function in a.u.

@ A operator, symmetry, frequency:   YDIPLEN    1 -0.019000
@ B operator, symmetry, frequency:   ZDIPLEN    1  0.019000

@ Value of linear response -<<A;B>>(omega):      -0.000000000000

@ Singlet linear response function in a.u.

@ A operator, symmetry, frequency:   ZDIPLEN    1 -0.019000
@ B operator, symmetry, frequency:   ZDIPLEN    1  0.019000

@ Value of linear response -<<A;B>>(omega):     118.282544054844


  Results from quadratic response calculation
 --------------------------------------------

@ B-freq = 0.000000  C-freq = 0.000000     beta(X;X,X) =  12339.27368787
@ B-freq = 0.000000  C-freq = 0.000000     beta(Y;X,X) =  12419.16560926
@ B-freq = 0.000000  C-freq = 0.000000     beta(Z;X,X) =     -0.00000000
@ B-freq = 0.019000  C-freq = 0.000000     beta(X;X,X) =  13212.23015986
@ B-freq = 0.019000  C-freq = 0.000000     beta(Y;X,X) =  13138.82541259
@ B-freq = 0.019000  C-freq = 0.000000     beta(Z;X,X) =     -0.00000000
@ B-freq = 0.000000  C-freq = 0.000000     beta(X;Y,X) = beta(Y,X,X)
@ B-freq = 0.000000  C-freq = 0.000000     beta(X;Y,X) =  12419.16425928
@ B-freq = 0.000000  C-freq = 0.000000     beta(Y;Y,X) =  11455.02390194
@ B-freq = 0.000000  C-freq = 0.000000     beta(Z;Y,X) =     -0.00000000
@ B-freq = 0.019000  C-freq = 0.000000     beta(X;Y,X) =  13138.82399206
@ B-freq = 0.019000  C-freq = 0.000000     beta(Y;Y,X) =  12030.75342116
@ B-freq = 0.019000  C-freq = 0.000000     beta(Z;Y,X) =     -0.00000000
@ B-freq = 0.000000  C-freq = 0.000000     beta(X;Z,X) = beta(Z,X,X)
@ B-freq = 0.000000  C-freq = 0.000000     beta(Y;Z,X) = beta(Z,Y,X)
@ B-freq = 0.000000  C-freq = 0.000000     beta(X;Z,X) =     -0.00000000
@ B-freq = 0.000000  C-freq = 0.000000     beta(Y;Z,X) =     -0.00000000
@ B-freq = 0.000000  C-freq = 0.000000     beta(Z;Z,X) =    -30.44368615
@ B-freq = 0.019000  C-freq = 0.000000     beta(X;Z,X) =     -0.00000000
@ B-freq = 0.019000  C-freq = 0.000000     beta(Y;Z,X) =     -0.00000000
@ B-freq = 0.019000  C-freq = 0.000000     beta(Z;Z,X) =    -31.01133806
@ B-freq = 0.000000  C-freq = 0.019000     beta(X;X,X) = beta(X,X,X)
@ B-freq = 0.000000  C-freq = 0.019000     beta(Y;X,X) = beta(Y,X,X)
@ B-freq = 0.000000  C-freq = 0.019000     beta(Z;X,X) = beta(Z,X,X)
@ B-freq = 0.019000  C-freq = 0.019000     beta(X;X,X) =  15224.19678481
@ B-freq = 0.019000  C-freq = 0.019000     beta(Y;X,X) =  14644.94103926
@ B-freq = 0.019000  C-freq = 0.019000     beta(Z;X,X) =     -0.00000000
@ B-freq = 0.000000  C-freq = 0.019000     beta(X;Y,X) =  13258.66701698
@ B-freq = 0.000000  C-freq = 0.019000     beta(Y;Y,X) =  12119.79732928
@ B-freq = 0.000000  C-freq = 0.019000     beta(Z;Y,X) =     -0.00000000
@ B-freq = 0.019000  C-freq = 0.019000     beta(X;Y,X) =  15054.24286949
@ B-freq = 0.019000  C-freq = 0.019000     beta(Y;Y,X) =  13435.39579921
@ B-freq = 0.019000  C-freq = 0.019000     beta(Z;Y,X) =     -0.00000000
@ B-freq = 0.000000  C-freq = 0.019000     beta(X;Z,X) =     -0.00000000
@ B-freq = 0.000000  C-freq = 0.019000     beta(Y;Z,X) =     -0.00000000
@ B-freq = 0.000000  C-freq = 0.019000     beta(Z;Z,X) =    -31.09930747
@ B-freq = 0.019000  C-freq = 0.019000     beta(X;Z,X) =     -0.00000000
@ B-freq = 0.019000  C-freq = 0.019000     beta(Y;Z,X) =     -0.00000000
@ B-freq = 0.019000  C-freq = 0.019000     beta(Z;Z,X) =    -32.29266774
@ B-freq = 0.000000  C-freq = 0.000000     beta(X;X,Y) = beta(Y,X,X)
@ B-freq = 0.000000  C-freq = 0.000000     beta(Y;X,Y) = beta(Y,Y,X)
@ B-freq = 0.000000  C-freq = 0.000000     beta(Z;X,Y) = beta(Z,Y,X)
@ B-freq = 0.019000  C-freq = 0.000000     beta(X;X,Y) = beta(X,Y,X)
@ B-freq = 0.019000  C-freq = 0.000000     beta(Y;X,Y) = beta(Y,Y,X)
@ B-freq = 0.019000  C-freq = 0.000000     beta(Z;X,Y) = beta(Z,Y,X)
@ B-freq = 0.000000  C-freq = 0.000000     beta(X;Y,Y) = beta(Y,Y,X)
@ B-freq = 0.000000  C-freq = 0.000000     beta(X;Y,Y) =  11455.02301969
@ B-freq = 0.000000  C-freq = 0.000000     beta(Y;Y,Y) =   9962.02205694
@ B-freq = 0.000000  C-freq = 0.000000     beta(Z;Y,Y) =     -0.00000000
@ B-freq = 0.019000  C-freq = 0.000000     beta(X;Y,Y) =  12119.79640129
@ B-freq = 0.019000  C-freq = 0.000000     beta(Y;Y,Y) =  10478.32156040
@ B-freq = 0.019000  C-freq = 0.000000     beta(Z;Y,Y) =     -0.00000000
@ B-freq = 0.000000  C-freq = 0.000000     beta(X;Z,Y) = beta(Z,Y,X)
@ B-freq = 0.000000  C-freq = 0.000000     beta(Y;Z,Y) = beta(Z,Y,Y)
@ B-freq = 0.000000  C-freq = 0.000000     beta(X;Z,Y) =     -0.00000000
@ B-freq = 0.000000  C-freq = 0.000000     beta(Y;Z,Y) =     -0.00000000
@ B-freq = 0.000000  C-freq = 0.000000     beta(Z;Z,Y) =    -27.96005101
@ B-freq = 0.019000  C-freq = 0.000000     beta(X;Z,Y) =     -0.00000000
@ B-freq = 0.019000  C-freq = 0.000000     beta(Y;Z,Y) =     -0.00000000
@ B-freq = 0.019000  C-freq = 0.000000     beta(Z;Z,Y) =    -28.36971410
@ B-freq = 0.000000  C-freq = 0.019000     beta(X;X,Y) = beta(X,Y,X)
@ B-freq = 0.000000  C-freq = 0.019000     beta(Y;X,Y) = beta(Y,Y,X)
@ B-freq = 0.000000  C-freq = 0.019000     beta(Z;X,Y) = beta(Z,Y,X)
@ B-freq = 0.019000  C-freq = 0.019000     beta(X;X,Y) = beta(X,Y,X)
@ B-freq = 0.019000  C-freq = 0.019000     beta(Y;X,Y) = beta(Y,Y,X)
@ B-freq = 0.019000  C-freq = 0.019000     beta(Z;X,Y) = beta(Z,Y,X)
@ B-freq = 0.000000  C-freq = 0.019000     beta(X;Y,Y) = beta(X,Y,Y)
@ B-freq = 0.000000  C-freq = 0.019000     beta(Y;Y,Y) = beta(Y,Y,Y)
@ B-freq = 0.000000  C-freq = 0.019000     beta(Z;Y,Y) = beta(Z,Y,Y)
@ B-freq = 0.019000  C-freq = 0.019000     beta(X;Y,Y) =  13739.97165415
@ B-freq = 0.019000  C-freq = 0.019000     beta(Y;Y,Y) =  11649.93035372
@ B-freq = 0.019000  C-freq = 0.019000     beta(Z;Y,Y) =     -0.00000000
@ B-freq = 0.000000  C-freq = 0.019000     beta(X;Z,Y) =     -0.00000000
@ B-freq = 0.000000  C-freq = 0.019000     beta(Y;Z,Y) =     -0.00000000
@ B-freq = 0.000000  C-freq = 0.019000     beta(Z;Z,Y) =    -28.41690417
@ B-freq = 0.019000  C-freq = 0.019000     beta(X;Z,Y) =     -0.00000000
@ B-freq = 0.019000  C-freq = 0.019000     beta(Y;Z,Y) =     -0.00000000
@ B-freq = 0.019000  C-freq = 0.019000     beta(Z;Z,Y) =    -29.27476633
@ B-freq = 0.000000  C-freq = 0.000000     beta(X;X,Z) = beta(Z,X,X)
@ B-freq = 0.000000  C-freq = 0.000000     beta(Y;X,Z) = beta(Z,Y,X)
@ B-freq = 0.000000  C-freq = 0.000000     beta(Z;X,Z) = beta(Z,Z,X)
@ B-freq = 0.019000  C-freq = 0.000000     beta(X;X,Z) = beta(X,Z,X)
@ B-freq = 0.019000  C-freq = 0.000000     beta(Y;X,Z) = beta(Y,Z,X)
@ B-freq = 0.019000  C-freq = 0.000000     beta(Z;X,Z) = beta(Z,Z,X)
@ B-freq = 0.000000  C-freq = 0.000000     beta(X;Y,Z) = beta(Z,Y,X)
@ B-freq = 0.000000  C-freq = 0.000000     beta(Y;Y,Z) = beta(Z,Y,Y)
@ B-freq = 0.000000  C-freq = 0.000000     beta(Z;Y,Z) = beta(Z,Z,Y)
@ B-freq = 0.019000  C-freq = 0.000000     beta(X;Y,Z) = beta(X,Z,Y)
@ B-freq = 0.019000  C-freq = 0.000000     beta(Y;Y,Z) = beta(Y,Z,Y)
@ B-freq = 0.019000  C-freq = 0.000000     beta(Z;Y,Z) = beta(Z,Z,Y)
@ B-freq = 0.000000  C-freq = 0.000000     beta(X;Z,Z) = beta(Z,Z,X)
@ B-freq = 0.000000  C-freq = 0.000000     beta(Y;Z,Z) = beta(Z,Z,Y)
@ B-freq = 0.000000  C-freq = 0.000000     beta(X;Z,Z) =    -30.44367148
@ B-freq = 0.000000  C-freq = 0.000000     beta(Y;Z,Z) =    -27.96003987
@ B-freq = 0.000000  C-freq = 0.000000     beta(Z;Z,Z) =     -0.00000000
@ B-freq = 0.019000  C-freq = 0.000000     beta(X;Z,Z) =    -31.09929205
@ B-freq = 0.019000  C-freq = 0.000000     beta(Y;Z,Z) =    -28.41689252
@ B-freq = 0.019000  C-freq = 0.000000     beta(Z;Z,Z) =     -0.00000000
@ B-freq = 0.000000  C-freq = 0.019000     beta(X;X,Z) = beta(X,Z,X)
@ B-freq = 0.000000  C-freq = 0.019000     beta(Y;X,Z) = beta(Y,Z,X)
@ B-freq = 0.000000  C-freq = 0.019000     beta(Z;X,Z) = beta(Z,Z,X)
@ B-freq = 0.019000  C-freq = 0.019000     beta(X;X,Z) = beta(X,Z,X)
@ B-freq = 0.019000  C-freq = 0.019000     beta(Y;X,Z) = beta(Y,Z,X)
@ B-freq = 0.019000  C-freq = 0.019000     beta(Z;X,Z) = beta(Z,Z,X)
@ B-freq = 0.000000  C-freq = 0.019000     beta(X;Y,Z) = beta(X,Z,Y)
@ B-freq = 0.000000  C-freq = 0.019000     beta(Y;Y,Z) = beta(Y,Z,Y)
@ B-freq = 0.000000  C-freq = 0.019000     beta(Z;Y,Z) = beta(Z,Z,Y)
@ B-freq = 0.019000  C-freq = 0.019000     beta(X;Y,Z) = beta(X,Z,Y)
@ B-freq = 0.019000  C-freq = 0.019000     beta(Y;Y,Z) = beta(Y,Z,Y)
@ B-freq = 0.019000  C-freq = 0.019000     beta(Z;Y,Z) = beta(Z,Z,Y)
@ B-freq = 0.000000  C-freq = 0.019000     beta(X;Z,Z) = beta(X,Z,Z)
@ B-freq = 0.000000  C-freq = 0.019000     beta(Y;Z,Z) = beta(Y,Z,Z)
@ B-freq = 0.000000  C-freq = 0.019000     beta(Z;Z,Z) = beta(Z,Z,Z)
@ B-freq = 0.019000  C-freq = 0.019000     beta(X;Z,Z) =    -32.62657683
@ B-freq = 0.019000  C-freq = 0.019000     beta(Y;Z,Z) =    -29.46087956
@ B-freq = 0.019000  C-freq = 0.019000     beta(Z;Z,Z) =     -0.00000000

  Total CPU  time used in RESPONSE:   4 hours  0 minutes 53 seconds
  Total wall time used in RESPONSE:   4 hours  2 minutes  6 seconds


                   .-------------------------------------------.
                   | End of Dynamic Property Section (RESPONS) |
                   `-------------------------------------------'

  Total CPU  time used in DALTON:   5 hours  8 minutes 51 seconds
  Total wall time used in DALTON:   5 hours 10 minutes 33 seconds

 
     Date and time (Linux)  : Wed May 28 00:55:49 2025
     Host name              : xm023                                   
