

     ************************************************************************
     *************** Dalton - An Electronic Structure Program ***************
     ************************************************************************

    This is output from DALTON release Dalton2020.0 (2020)
         ( Web site: http://daltonprogram.org )

   ----------------------------------------------------------------------------

    NOTE:
     
    Dalton is an experimental code for the evaluation of molecular
    properties using (MC)SCF, DFT, CI, and CC wave functions.
    The authors accept no responsibility for the performance of
    the code or for the correctness of the results.
     
    The code (in whole or part) is provided under a licence and
    is not to be reproduced for further distribution without
    the written permission of the authors or their representatives.
     
    See the home page "http://daltonprogram.org" for further information.
     
    If results obtained with this code are published,
    the appropriate citations would be both of:
     
       K. Aidas, C. Angeli, K. L. Bak, V. Bakken, R. Bast,
       L. Boman, O. Christiansen, R. Cimiraglia, S. Coriani,
       P. Dahle, E. K. Dalskov, U. Ekstroem,
       T. Enevoldsen, J. J. Eriksen, P. Ettenhuber, B. Fernandez,
       L. Ferrighi, H. Fliegl, L. Frediani, K. Hald, A. Halkier,
       C. Haettig, H. Heiberg, T. Helgaker, A. C. Hennum,
       H. Hettema, E. Hjertenaes, S. Hoest, I.-M. Hoeyvik,
       M. F. Iozzi, B. Jansik, H. J. Aa. Jensen, D. Jonsson,
       P. Joergensen, J. Kauczor, S. Kirpekar,
       T. Kjaergaard, W. Klopper, S. Knecht, R. Kobayashi, H. Koch,
       J. Kongsted, A. Krapp, K. Kristensen, A. Ligabue,
       O. B. Lutnaes, J. I. Melo, K. V. Mikkelsen, R. H. Myhre,
       C. Neiss, C. B. Nielsen, P. Norman, J. Olsen,
       J. M. H. Olsen, A. Osted, M. J. Packer, F. Pawlowski,
       T. B. Pedersen, P. F. Provasi, S. Reine, Z. Rinkevicius,
       T. A. Ruden, K. Ruud, V. Rybkin, P. Salek, C. C. M. Samson,
       A. Sanchez de Meras, T. Saue, S. P. A. Sauer,
       B. Schimmelpfennig, K. Sneskov, A. H. Steindal,
       K. O. Sylvester-Hvid, P. R. Taylor, A. M. Teale,
       E. I. Tellgren, D. P. Tew, A. J. Thorvaldsen, L. Thoegersen,
       O. Vahtras, M. A. Watson, D. J. D. Wilson, M. Ziolkowski
       and H. Agren,
       "The Dalton quantum chemistry program system",
       WIREs Comput. Mol. Sci. 2014, 4:269–284 (doi: 10.1002/wcms.1172)
     
    and
     
       Dalton, a molecular electronic structure program,
       Release Dalton2020.0 (2020), see http://daltonprogram.org
   ----------------------------------------------------------------------------

    Authors in alphabetical order (Major contribution(s) in parenthesis):

  Kestutis Aidas,           Vilnius University,           Lithuania   (QM/MM)
  Celestino Angeli,         University of Ferrara,        Italy       (NEVPT2)
  Keld L. Bak,              UNI-C,                        Denmark     (AOSOPPA, non-adiabatic coupling, magnetic properties)
  Vebjoern Bakken,          University of Oslo,           Norway      (DALTON; geometry optimizer, symmetry detection)
  Radovan Bast,             UiT The Arctic U. of Norway,  Norway      (DALTON installation and execution frameworks)
  Pablo Baudin,             University of Valencia,       Spain       (Cholesky excitation energies)
  Linus Boman,              NTNU,                         Norway      (Cholesky decomposition and subsystems)
  Bruno N. Cabral Tenorio,  Technical Univ. of Denmark,   Denmark     (Lanczos-based CC methods)
  Ove Christiansen,         Aarhus University,            Denmark     (CC module)
  Renzo Cimiraglia,         University of Ferrara,        Italy       (NEVPT2)
  Sonia Coriani,            Technical Univ. of Denmark,   Denmark     (CC and RESPONS modules)
  Janusz Cukras,            University of Warsaw,         Poland      (MChD in RESPONS)
  Paal Dahle,               University of Oslo,           Norway      (Parallelization)
  Erik K. Dalskov,          UNI-C,                        Denmark     (SOPPA)
  Thomas Enevoldsen,        Univ. of Southern Denmark,    Denmark     (SOPPA)
  Janus J. Eriksen,         Aarhus University,            Denmark     (Polarizable embedding, TDA)
  Rasmus Faber,             Technical Univ. of Denmark,   Denmark     (Vib.avg. NMR w. SOPPA, parallel AO-SOPPA, CVS-CC and EOMCC)
  Tobias Fahleson,          KTH Stockholm,                Sweden      (Damped cubic response)
  Berta Fernandez,          U. of Santiago de Compostela, Spain       (Doublet spin, ESR in RESPONS)
  Lara Ferrighi,            Aarhus University,            Denmark     (PCM Cubic response)
  Heike Fliegl,             University of Oslo,           Norway      (CCSD(R12))
  Luca Frediani,            UiT The Arctic U. of Norway,  Norway      (PCM)
  Emmanuel Fromager,        Univ. Strasbourg,             France      (MC-srDFT)
  Bin Gao,                  UiT The Arctic U. of Norway,  Norway      (Gen1Int library)
  Andre S. P. Gomes,        CNRS/Universite de Lille,     France      (Frozen density embedding)
  Christof Haettig,         Ruhr-University Bochum,       Germany     (CC module)
  Kasper Hald,              Aarhus University,            Denmark     (CC module)
  Asger Halkier,            Aarhus University,            Denmark     (CC module)
  Frederik Beyer Hansen,    University of Copenhagen,     Denmark     (Parallel AO-SOPPA)
  Erik D. Hedegaard,        Univ. of Southern Denmark,    Denmark     (Polarizable embedding, QM/MM, and MC-srDFT)
  Hanne Heiberg,            University of Oslo,           Norway      (Geometry analysis, selected one-electron integrals)
  Trygve Helgaker,          University of Oslo,           Norway      (DALTON; ABACUS, ERI, DFT modules, London, and much more)
  Alf Christian Hennum,     University of Oslo,           Norway      (Parity violation)
  Hinne Hettema,            University of Auckland,       New Zealand (Quadratic response in RESPONS; SIRIUS supersymmetry)
  Eirik Hjertenaes,         NTNU,                         Norway      (Cholesky decomposition)
  Pi A. B. Haase,           University of Copenhagen,     Denmark     (Triplet AO-SOPPA)
  Maria Francesca Iozzi,    University of Oslo,           Norway      (RPA)
  Christoph Jacob           TU Braunschweig               Germany     (Frozen density embedding)
  Brano Jansik              Technical Univ. of Ostrava    Czech Rep.  (DFT cubic response)
  Hans Joergen Aa. Jensen,  Univ. of Southern Denmark,    Denmark     (DALTON; SIRIUS, RESPONS, ABACUS, MC-srDFT, and much more)
  Dan Jonsson,              UiT The Arctic U. of Norway,  Norway      (Cubic response in RESPONS module)
  Poul Joergensen,          Aarhus University,            Denmark     (RESPONS, ABACUS, and CC modules)
  Maciej Kaminski,          University of Warsaw,         Poland      (CPPh in RESPONS)
  Joanna Kauczor,           Linkoeping University,        Sweden      (Complex polarization propagator (CPP) module)
  Sheela Kirpekar,          Univ. of Southern Denmark,    Denmark     (Mass-velocity & Darwin integrals)
  Erik Kjellgren,           Univ. of Southern Denmark,    Denmark     (MC-srDFT)
  Wim Klopper,              KIT Karlsruhe,                Germany     (R12 code in CC, SIRIUS, and ABACUS modules)
  Stefan Knecht,            ETH Zurich,                   Switzerland (Parallel CI and MCSCF, MC-srDFT)
  Rika Kobayashi,           Australian National Univ.,    Australia   (DIIS in CC, London in MCSCF)
  Henrik Koch,              NTNU,                         Norway      (CC module, Cholesky decomposition)
  Jacob Kongsted,           Univ. of Southern Denmark,    Denmark     (Polarizable embedding, polarizable density embedding, QM/MM)
  Andrea Ligabue,           University of Modena,         Italy       (CTOCD, AOSOPPA)
  Nanna H. List             Univ. of Southern Denmark,    Denmark     (Polarizable embedding)
  Ola B. Lutnaes,           University of Oslo,           Norway      (DFT Hessian)
  Juan I. Melo,             University of Buenos Aires,   Argentina   (LRESC, Relativistic Effects on NMR Shieldings)
  Kurt V. Mikkelsen,        University of Copenhagen,     Denmark     (MC-SCRF and QM/MM)
  Rolf H. Myhre,            NTNU,                         Norway      (Subsystems and CC3)
  Christian Neiss,          Univ. Erlangen-Nuernberg,     Germany     (CCSD(R12))
  Christian B. Nielsen,     University of Copenhagen,     Denmark     (QM/MM)
  Patrick Norman,           KTH Stockholm,                Sweden      (Cubic response and complex frequency response in RESPONS)
  Jeppe Olsen,              Aarhus University,            Denmark     (SIRIUS CI/density modules)
  Jogvan Magnus H. Olsen,   Aarhus University,            Denmark     (Polarizable embedding and polarizable density embedding)
  Anders Osted,             Copenhagen University,        Denmark     (QM/MM)
  Martin J. Packer,         University of Sheffield,      UK          (SOPPA)
  Filip Pawlowski,          Kazimierz Wielki University,  Poland      (CC3)
  Morten N. Pedersen,       Univ. of Southern Denmark,    Denmark     (Polarizable embedding)
  Thomas B. Pedersen,       University of Oslo,           Norway      (Cholesky decomposition)
  Patricio F. Provasi,      University of Northeastern,   Argentina   (Analysis of coupling constants in localized orbitals)
  Peter Reinholdt,          Univ. of Southern Denmark,    Denmark     (Polarizable embedding and polarizable density embedding)
  Zilvinas Rinkevicius,     KTH Stockholm,                Sweden      (open-shell DFT, ESR)
  Elias Rudberg,            KTH Stockholm,                Sweden      (DFT grid and basis info)
  Torgeir A. Ruden,         University of Oslo,           Norway      (Numerical derivatives in ABACUS)
  Kenneth Ruud,             UiT The Arctic U. of Norway,  Norway      (DALTON; ABACUS magnetic properties and much more)
  Pawel Salek,              KTH Stockholm,                Sweden      (DALTON; DFT code)
  Claire C. M. Samson       University of Karlsruhe       Germany     (Boys localization, r12 integrals in ERI)
  Alfredo Sanchez de Meras, University of Valencia,       Spain       (CC module, Cholesky decomposition)
  Trond Saue,               Paul Sabatier University,     France      (direct Fock matrix construction)
  Stephan P. A. Sauer,      University of Copenhagen,     Denmark     (SOPPA(CCSD), SOPPA prop., AOSOPPA, vibrational g-factors)
  Bernd Schimmelpfennig,    Forschungszentrum Karlsruhe,  Germany     (AMFI module)
  Anna K. Schnack-Petersen, University of Copenhagen,     Denmark     (RPA(D) and HRPA(D) properties in AOSOPPA)
  Kristian Sneskov,         Aarhus University,            Denmark     (Polarizable embedding, QM/MM)
  Arnfinn H. Steindal,      UiT The Arctic U. of Norway,  Norway      (parallel QM/MM, polarizable embedding)
  Casper Steinmann,         Aalborg University,           Denmark     (QFIT, polarizable embedding)
  K. O. Sylvester-Hvid,     University of Copenhagen,     Denmark     (MC-SCRF)
  Peter R. Taylor,          VLSCI/Univ. of Melbourne,     Australia   (Symmetry handling ABACUS, integral transformation)
  Andrew M. Teale,          University of Nottingham,     England     (DFT-AC, DFT-D)
  David P. Tew,             University of Bristol,        England     (CCSD(R12))
  Julien Toulouse,          Sorbonne Univ.,               France      (MC-srDFT)
  Olav Vahtras,             KTH Stockholm,                Sweden      (Triplet response, spin-orbit, ESR, TDDFT, open-shell DFT)
  Lucas Visscher,           Vrije Universiteit Amsterdam, Netherlands (Frozen density embedding)
  David J. Wilson,          La Trobe University,          Australia   (DFT Hessian and DFT magnetizabilities)
  Hans Agren,               KTH Stockholm,                Sweden      (SIRIUS module, RESPONS, MC-SCRF solvation)
 --------------------------------------------------------------------------------

     Date and time (Linux)  : Wed May 28 00:56:28 2025
     Host name              : xm023                                   

 * Work memory size             :   131072000 = 1000.00 megabytes.

 * Directories for basis set searches:
   1) /gpfs/projects/rjh/adrian/summer2025/beta_projects/raw_data/NLO/dalton/hf/n7/dipole
   2) /gpfs/projects/rjh/adrian/dalton/build/basis


Compilation information
-----------------------

 Who compiled             | ahurtado
 Host                     | milan2
 System                   | Linux-5.14.0-427.42.1.el9_4.x86_64
 CMake generator          | Unix Makefiles
 Processor                | x86_64
 64-bit integers          | OFF
 MPI                      | ON
 Fortran compiler         | /gpfs/software/openmpi/milan/gcc13.2/4.1.6/bin/mpi
                          | f90
 Fortran compiler version | GNU Fortran (GCC) 13.2.0
 C compiler               | /gpfs/software/openmpi/milan/gcc13.2/4.1.6/bin/mpi
                          | cc
 C compiler version       | gcc (GCC) 13.2.0
 C++ compiler             | /gpfs/software/openmpi/milan/gcc13.2/4.1.6/bin/mpi
                          | cxx
 C++ compiler version     | unknown
 BLAS                     | /gpfs/software/intel/oneAPI/2024_2/mkl/2024.2/lib/
                          | intel64/libmkl_gf_lp64.so;/gpfs/software/intel/one
                          | API/2024_2/mkl/2024.2/lib/intel64/libmkl_sequentia
                          | l.so;/gpfs/software/intel/oneAPI/2024_2/mkl/2024.2
                          | /lib/intel64/libmkl_core.so;/usr/lib64/libpthread.
                          | a;/usr/lib64/libm.so
 LAPACK                   | /gpfs/software/intel/oneAPI/2024_2/mkl/2024.2/lib/
                          | intel64/libmkl_lapack95_lp64.a;/gpfs/software/inte
                          | l/oneAPI/2024_2/mkl/2024.2/lib/intel64/libmkl_gf_l
                          | p64.so
 Static linking           | OFF
 Last Git revision        | 66052b3af5ea7225e31178bf9a8b031913c72190
 Git branch               | (HEAD detached at Dalton2020.0)
 Configuration time       | 2025-04-10 16:02:31.569498

 * MPI parallel run using 576 processes.


   Content of the .dal input file
 ----------------------------------

**DALTON INPUT
.RUN RESPONSE
.DIRECT
**WAVE FUNCTIONS
.HF
**PROPERTIES
**RESPONSE
*QUADRA
.DIPLEN
.FREQUENCIES
2
0.0 0.019
**END OF DALTON INPUT


   Content of the .mol file
 ----------------------------

BASIS
d-aug-cc-pVDZ
blah
blah
Atomtype=4 Angstrom Charge=0 Nosymmetry
Charge=6 Atoms=14
C_a -5.688253998920483 -4.073789998608875 0.0
C_b -4.365261002041478 -3.7894669992272423 0.0
C_c -3.8410090024243475 -2.441841999132047 0.0
C_d -2.4968229980187657 -2.1745299991576497 0.0
C_e -1.934394000672653 -0.8473809979274352 0.0
C_f -0.5830420001909361 -0.5998170024375289 0.0
C_g 0.0 0.716076997491983 0.0
C_h 1.355741001558786 0.9461549988185847 0.0
C_i 1.9581610002367398 2.2527620022021035 0.0
C_j 3.3169849988084334 2.463290001281131 0.0
C_k 3.9445530014007044 3.7589580015352984 0.0
C_l 5.306200001638159 3.9389670014730997 0.0
C_m 5.975829998785722 5.214614000011564 0.0
C_n 7.341654001126106 5.320060999614071 0.0
Charge=7 Atoms=2
N_a 8.06204499940909 6.482939001032188 0.0
N_b -6.16284599821494 -5.452471001586912 0.0
Charge=8 Atoms=2
O_a -7.391974001849472 -5.593242998341496 0.0
O_b -5.336911002146733 -6.368107001264271 0.0
Charge=1 Atoms=16
H_a -6.50302400143975 -3.3473629986818767 0.0
H_b -3.6635359996003283 -4.632344000577958 0.0
H_c -4.55348100133573 -1.6057969983691793 0.0
H_d -1.7949299976885436 -3.021543001961013 0.0
H_e -2.630119001395431 0.0038470019025845527 0.0
H_f 0.10581700030820816 -1.4578720021307559 0.0
H_g -0.6827879990744163 1.5780069978540112 0.0
H_h 2.032161998643914 0.07803700124232153 0.0
H_i 1.2879499982624942 3.1245889975561805 0.0
H_j 3.9786580016606683 1.583488998584403 0.0
H_k 3.2915520012155386 4.643521001157808 0.0
H_l 5.942742997893013 3.040383001853259 0.0
H_m 5.36415599776086 6.127034999420813 0.0
H_n 7.952118001416368 4.408326999226803 0.0
H_o 7.597205000550958 7.380607000192131 0.0
H_p 9.070163998419307 6.470251998573463 0.0


       *******************************************************************
       *********** Output from DALTON general input processing ***********
       *******************************************************************

 --------------------------------------------------------------------------------
   Overall default print level:    0
   Print level for DALTON.STAT:    1

    Parallel calculation using MPI
    AO-direct calculation (in sections where implemented)
    HERMIT 1- and 2-electron integral sections will be executed
    "Old" integral transformation used (limited to max 255 basis functions)
    Wave function sections will be executed (SIRIUS module)
    Dynamic molecular response properties section will be executed (RESPONSE module)
 --------------------------------------------------------------------------------


   ****************************************************************************
   *************** Output of molecule and basis set information ***************
   ****************************************************************************


    The two title cards from your ".mol" input:
    ------------------------------------------------------------------------
 1: blah                                                                    
 2: blah                                                                    
    ------------------------------------------------------------------------

  Coordinates are entered in Angstrom and converted to atomic units.
          - Conversion factor : 1 bohr = 0.52917721 A

  Atomic type no.    1
  --------------------
  Nuclear charge:   6.00000
  Number of symmetry independent centers:   14
  Number of basis sets to read;    2
  Basis set file used for this atomic type with Z =   6 :
     "/gpfs/projects/rjh/adrian/dalton/build/basis/aug-cc-pVDZ"

  Atomic type no.    2
  --------------------
  Nuclear charge:   7.00000
  Number of symmetry independent centers:    2
  Number of basis sets to read;    2
  Basis set file used for this atomic type with Z =   7 :
     "/gpfs/projects/rjh/adrian/dalton/build/basis/aug-cc-pVDZ"

  Atomic type no.    3
  --------------------
  Nuclear charge:   8.00000
  Number of symmetry independent centers:    2
  Number of basis sets to read;    2
  Basis set file used for this atomic type with Z =   8 :
     "/gpfs/projects/rjh/adrian/dalton/build/basis/aug-cc-pVDZ"

  Atomic type no.    4
  --------------------
  Nuclear charge:   1.00000
  Number of symmetry independent centers:   16
  Number of basis sets to read;    2
  Basis set file used for this atomic type with Z =   1 :
     "/gpfs/projects/rjh/adrian/dalton/build/basis/aug-cc-pVDZ"


                         SYMGRP: Point group information
                         -------------------------------

@    Point group: C1 


                                 Isotopic Masses
                                 ---------------

                           C_a        12.000000
                           C_b        12.000000
                           C_c        12.000000
                           C_d        12.000000
                           C_e        12.000000
                           C_f        12.000000
                           C_g        12.000000
                           C_h        12.000000
                           C_i        12.000000
                           C_j        12.000000
                           C_k        12.000000
                           C_l        12.000000
                           C_m        12.000000
                           C_n        12.000000
                           N_a        14.003074
                           N_b        14.003074
                           O_a        15.994915
                           O_b        15.994915
                           H_a         1.007825
                           H_b         1.007825
                           H_c         1.007825
                           H_d         1.007825
                           H_e         1.007825
                           H_f         1.007825
                           H_g         1.007825
                           H_h         1.007825
                           H_i         1.007825
                           H_j         1.007825
                           H_k         1.007825
                           H_l         1.007825
                           H_m         1.007825
                           H_n         1.007825
                           H_o         1.007825
                           H_p         1.007825

                       Total mass:   244.121178 amu
                       Natural abundance:  84.411 %

 Center-of-mass coordinates (a.u.):   -0.205246   -0.186700    0.000000
 Center-of-mass coordinates (Angs):   -0.108612   -0.098797    0.000000


  Atoms and basis sets
  --------------------

  Number of atom types :    4
  Total number of atoms:   34

  Basis set used is "d-aug-cc-pVDZ" from the basis set library.

  label    atoms   charge   prim   cont     basis
  ----------------------------------------------------------------------
  C_         14    6.0000    44    32      [11s6p3d|5s4p3d]                                   
  N_          2    7.0000    44    32      [11s6p3d|5s4p3d]                                   
  O_          2    8.0000    44    32      [11s6p3d|5s4p3d]                                   
  H_         16    1.0000    15    13      [6s3p|4s3p]                                        
  ----------------------------------------------------------------------
  total:     34  130.0000  1032   784
  ----------------------------------------------------------------------
  Spherical harmonic basis used.

  Threshold for neglecting AO integrals:  1.00D-12

  Max    interatomic separation is   20.4091 Angstrom (   38.5675 Bohr)
  between atoms   34 and   17, "H_p   " and "O_a   ".

  Min HX interatomic separation is    1.0082 Angstrom (    1.9052 Bohr)

  Min YX interatomic separation is    1.2331 Angstrom (    2.3302 Bohr)


  Bond distances (Angstrom):
  --------------------------

                  atom 1     atom 2       distance
                  ------     ------       --------
  bond distance:  C_b        C_a          1.353200
  bond distance:  C_c        C_b          1.446006
  bond distance:  C_d        C_c          1.370508
  bond distance:  C_e        C_d          1.441406
  bond distance:  C_f        C_e          1.373841
  bond distance:  C_g        C_f          1.439276
  bond distance:  C_h        C_g          1.375125
  bond distance:  C_i        C_h          1.438795
  bond distance:  C_j        C_i          1.375036
  bond distance:  C_k        C_j          1.439652
  bond distance:  C_l        C_k          1.373494
  bond distance:  C_m        C_l          1.440722
  bond distance:  C_n        C_m          1.369888
  bond distance:  N_a        C_n          1.367936
  bond distance:  N_b        C_a          1.458081
  bond distance:  O_a        N_b          1.237163
  bond distance:  O_b        N_b          1.233109
  bond distance:  H_a        C_a          1.091580
  bond distance:  H_b        C_b          1.096750
  bond distance:  H_c        C_c          1.098448
  bond distance:  H_d        C_d          1.100039
  bond distance:  H_e        C_e          1.099374
  bond distance:  H_f        C_f          1.100357
  bond distance:  H_g        C_g          1.099601
  bond distance:  H_h        C_h          1.100534
  bond distance:  H_i        C_i          1.099666
  bond distance:  H_j        C_j          1.100846
  bond distance:  H_k        C_k          1.099483
  bond distance:  H_l        C_l          1.101199
  bond distance:  H_m        C_m          1.098479
  bond distance:  H_n        C_n          1.097235
  bond distance:  H_o        N_a          1.010883
  bond distance:  H_p        N_a          1.008199


  Bond angles (degrees):
  ----------------------

                  atom 1     atom 2     atom 3         angle
                  ------     ------     ------         -----
  bond angle:     C_b        C_a        N_b          121.124
  bond angle:     C_b        C_a        H_a          126.152
  bond angle:     N_b        C_a        H_a          112.724
  bond angle:     C_a        C_b        C_c          123.386
  bond angle:     C_a        C_b        H_b          117.650
  bond angle:     C_c        C_b        H_b          118.964
  bond angle:     C_b        C_c        C_d          122.504
  bond angle:     C_b        C_c        H_c          118.306
  bond angle:     C_d        C_c        H_c          119.190
  bond angle:     C_c        C_d        C_e          124.214
  bond angle:     C_c        C_d        H_d          118.400
  bond angle:     C_e        C_d        H_d          117.386
  bond angle:     C_d        C_e        C_f          123.348
  bond angle:     C_d        C_e        H_e          117.774
  bond angle:     C_f        C_e        H_e          118.878
  bond angle:     C_e        C_f        C_g          124.278
  bond angle:     C_e        C_f        H_f          118.377
  bond angle:     C_g        C_f        H_f          117.345
  bond angle:     C_f        C_g        C_h          123.529
  bond angle:     C_f        C_g        H_g          117.718
  bond angle:     C_h        C_g        H_g          118.753
  bond angle:     C_g        C_h        C_i          124.384
  bond angle:     C_g        C_h        H_h          118.293
  bond angle:     C_i        C_h        H_h          117.323
  bond angle:     C_h        C_i        C_j          123.559
  bond angle:     C_h        C_i        H_i          117.697
  bond angle:     C_j        C_i        H_i          118.744
  bond angle:     C_i        C_j        C_k          124.651
  bond angle:     C_i        C_j        H_j          118.139
  bond angle:     C_k        C_j        H_j          117.211
  bond angle:     C_j        C_k        C_l          123.374
  bond angle:     C_j        C_k        H_k          117.721
  bond angle:     C_l        C_k        H_k          118.905
  bond angle:     C_k        C_l        C_m          125.227
  bond angle:     C_k        C_l        H_l          117.782
  bond angle:     C_m        C_l        H_l          116.990
  bond angle:     C_l        C_m        C_n          122.111
  bond angle:     C_l        C_m        H_m          118.466
  bond angle:     C_n        C_m        H_m          119.423
  bond angle:     C_m        C_n        N_a          126.192
  bond angle:     C_m        C_n        H_n          119.390
  bond angle:     N_a        C_n        H_n          114.417
  bond angle:     C_n        N_a        H_o          120.846
  bond angle:     C_n        N_a        H_p          121.057
  bond angle:     H_o        N_a        H_p          118.098
  bond angle:     C_a        N_b        O_a          115.529
  bond angle:     C_a        N_b        O_b          118.953
  bond angle:     O_a        N_b        O_b          125.518




 Principal moments of inertia (u*A**2) and principal axes
 --------------------------------------------------------

   IA      97.541278          0.769275    0.638918    0.000000
   IB    9862.539910         -0.638918    0.769275    0.000000
   IC    9960.081189          0.000000    0.000000    1.000000


 Rotational constants
 --------------------

@    The molecule is planar.

               A                   B                   C

           5181.1809             51.2423             50.7405 MHz
            0.172826            0.001709            0.001693 cm-1


@  Nuclear repulsion energy :  980.156376287948 Hartree


                     .---------------------------------------.
                     | Starting in Integral Section (HERMIT) |
                     `---------------------------------------'



 ***************************************************************************************
 ****************** Output from **INTEGRALS input processing (HERMIT) ******************
 ***************************************************************************************


 - Using defaults, no **INTEGRALS input found

 Default print level:        1

 Calculation of one-electron Hamiltonian integrals.

 Center of mass  (bohr):     -0.205246260585     -0.186699563756      0.000000000000
 Operator center (bohr):      0.000000000000      0.000000000000      0.000000000000
 Gauge origin    (bohr):      0.000000000000      0.000000000000      0.000000000000
 Dipole origin   (bohr):      0.000000000000      0.000000000000      0.000000000000


     ************************************************************************
     ************************** Output from HERINT **************************
     ************************************************************************



                      Nuclear contribution to dipole moments
                      --------------------------------------

                 au               Debye          C m (/(10**-30)

      x      0.00001130         0.00002872         0.00009581
      y     -0.00001317        -0.00003347        -0.00011166
      z      0.00000000         0.00000000         0.00000000


  Time used in ONEDRV     is       1.30 seconds
  Time used in HUCKEL     is       0.33 seconds
  Time used in OVERLAP    is       0.17 seconds
  Time used in POPOVLP    is       0.34 seconds
  Time used in R2         is       0.22 seconds
  Time used in R4         is       0.25 seconds
  Time used in DIPLEN     is       0.22 seconds
  Time used in QUADRUP    is       0.44 seconds
  Time used in KINENE     is       0.32 seconds
  Time used in GABGEN     is       1.29 seconds
  Total CPU  time used in HERMIT:   4.89 seconds
  Total wall time used in HERMIT:   4.95 seconds


                        .----------------------------------.
                        | End of Integral Section (HERMIT) |
                        `----------------------------------'



                   .--------------------------------------------.
                   | Starting in Wave Function Section (SIRIUS) |
                   `--------------------------------------------'



@ Primary orbitals are deleted during canonical orthonormalization
@   because of detected numerical linear dependence or too large coefficients.
@ Eigenvalue threshold for num. lin. dep. =  1.00D-06

@  46 MO components are deleted in symmetry    1
 Overlap eigenvalues of the deleted orbitals:
  9.30D-07  8.60D-07  8.20D-07  7.51D-07  6.46D-07
  6.02D-07  5.73D-07  5.56D-07  4.96D-07  3.95D-07
  3.38D-07  3.17D-07  2.52D-07  1.97D-07  1.88D-07
  1.81D-07  1.77D-07  1.59D-07  1.46D-07  1.36D-07
  1.07D-07  9.02D-08  7.24D-08  6.98D-08  4.82D-08
  4.22D-08  3.74D-08  3.58D-08  2.78D-08  2.24D-08
  2.15D-08  2.04D-08  1.79D-08  1.64D-08  1.27D-08
  1.04D-08  8.30D-09  7.47D-09  6.59D-09  5.88D-09
  4.76D-09  4.65D-09  3.45D-09  2.21D-09  2.06D-09
  1.88D-09

 Max MO coeff. of last deleted MO & limit:  1.96D+02  1.00D+03

WARNING: Orbitals have been deleted because of numerical
   linear dependence although not requested in input.

 *** Output from Huckel module :

     Using EWMO model:          T
     Using EHT  model:          F
     Number of Huckel orbitals each symmetry:  106

 EWMO - Energy Weighted Maximum Overlap - is a Huckel type method,
        which normally is better than Extended Huckel Theory.
 Reference: Linderberg and Ohrn, Propagators in Quantum Chemistry (Wiley, 1973)

 Huckel EWMO eigenvalues for symmetry :  1
          -20.684753     -20.683492     -15.677078     -15.674970     -11.359301
          -11.359159     -11.358872     -11.357977     -11.356157     -11.353878
          -11.351614     -11.348326     -11.347057     -11.346068     -11.345522
          -11.345452     -11.345269     -11.345246      -1.964051      -1.791566
           -1.778481      -1.739932      -1.665395      -1.556023      -1.449247
           -1.414950      -1.276025      -1.196856      -1.147045      -1.126329
           -1.059899      -0.992425      -0.966392      -0.880475      -0.872099
           -0.852004      -0.820399      -0.772916      -0.756153      -0.734376
           -0.730012      -0.689678      -0.670994      -0.653153      -0.626376
           -0.604435      -0.603097      -0.585270      -0.559913      -0.549165
           -0.535375      -0.531153      -0.508130      -0.501152      -0.494001
           -0.488089      -0.484778      -0.477616      -0.476986      -0.470451
           -0.449592      -0.413294      -0.403925      -0.370769      -0.366828
           -0.335018      -0.291582      -0.260815      -0.236815      -0.229147
           -0.219194      -0.207046      -0.201042      -0.199305      -0.195045
           -0.190532      -0.166582      -0.142745      -0.138800      -0.132988
           -0.131056      -0.130764      -0.129488      -0.129047      -0.128951
           -0.127697      -0.127089      -0.126387      -0.125248      -0.125045
           -0.123898      -0.123125      -0.111232      -0.108736      -0.103713
           -0.101414      -0.095966      -0.094499      -0.090640      -0.089296
           -0.087338      -0.085948      -0.085051      -0.082948      -0.080875
           -0.079433

 **********************************************************************
 *SIRIUS* a direct, restricted step, second order MCSCF program       *
 **********************************************************************

 
     Date and time (Linux)  : Wed May 28 00:57:00 2025
     Host name              : xm023                                   

 Title lines from ".mol" input file:
     blah                                                                    
     blah                                                                    

 Print level on unit LUPRI =   2 is   0
 Print level on unit LUW4  =   2 is   5

@    Restricted, closed shell Hartree-Fock calculation.

@    Time-dependent Hartree-Fock calculation (random phase approximation).
 Fock matrices are calculated directly and in parallel without use of integrals on disk.

 Initial molecular orbitals are obtained according to
 ".MOSTART EWMO  " input option

     Wave function specification
     ============================
@    Wave function type        --- HF ---
@    Number of closed shell electrons         130
@    Number of electrons in active shells       0
@    Total charge of the molecule               0

@    Spin multiplicity and 2 M_S                1         0
@    Total number of symmetries                 1 (point group: C1 )
@    Reference state symmetry                   1 (irrep name : A  )

     Orbital specifications
     ======================
@    Abelian symmetry species          All |    1
@                                          |  A  
                                       --- |  ---
@    Occupied SCF orbitals              65 |   65
@    Secondary orbitals                673 |  673
@    Total number of orbitals          738 |  738
@    Number of basis functions         784 |  784

     Optimization information
     ========================
@    Number of configurations                 1
@    Number of orbital rotations          43745
     ------------------------------------------
@    Total number of variables            43746

     Maximum number of Fock   iterations      0
     Maximum number of DIIS   iterations     60
     Maximum number of QC-SCF iterations     60
     Threshold for SCF convergence     1.00D-05

    INFORMATION: Switched to "new" integral transformation (from 1988 ;-) )
    because more than 255 basis functions.


 ***********************************************
 ***** DIIS acceleration of SCF iterations *****
 ***********************************************

 C1-DIIS algorithm; max error vectors =    8

 Iter      Total energy        Error norm    Delta(E)  DIIS dim.
 -----------------------------------------------------------------------------
   1  Screening settings (-IFTHRS, JTDIIS, DIFDEN, times)   -9    1    T  8.48D+00  8.55D+00
@  1    -794.906576501        6.56111D+00   -7.95D+02    1
      Virial theorem: -V/T =      2.009887
@    MULPOP   C_a     0.87; C_b     0.32; C_c     0.49; C_d     0.54; C_e     0.49; C_f     0.63; C_g     0.21; C_h     0.55; C_i     0.47; C_j     0.65; 
@             C_k     0.37; C_l     0.77; C_m     0.05; C_n     0.98; N_a    -0.29; N_b     0.84; O_a    -1.15; O_b    -1.20; H_a    -0.24; H_b    -0.38; 
@             H_c    -0.35; H_d    -0.45; H_e    -0.49; H_f    -0.42; H_g    -0.42; H_h    -0.44; H_i    -0.42; H_j    -0.46; H_k    -0.48; H_l    -0.27; 
@    MULPOP    dipole moment & components:     22.4858;       16.3825     15.4021      0.0000
   1  Level shift: doubly occupied orbital energies shifted by -2.00D-01
 -----------------------------------------------------------------------------
   2  Screening settings (-IFTHRS, JTDIIS, DIFDEN, times)   -9    2    T  4.24D+00  4.40D+00
@  2    -797.503940958        2.75389D+00   -2.60D+00    2
      Virial theorem: -V/T =      2.001640
@    MULPOP   C_a     0.07; C_b     0.28; C_c     0.77; C_d     0.69; C_e     0.89; C_f     1.09; C_g     0.67; C_h     0.68; C_i     1.12; C_j     1.20; 
@             C_k     0.36; C_l     0.91; C_m     0.90; C_n    -0.40; N_a     0.28; N_b     0.68; O_a    -0.46; O_b    -0.70; H_a    -0.56; H_b    -0.69; 
@             H_c    -0.48; H_d    -0.55; H_e    -0.71; H_f    -0.61; H_g    -0.62; H_h    -0.69; H_i    -0.59; H_j    -0.72; H_k    -0.63; H_l    -0.39; 
@    MULPOP    dipole moment & components:      8.6391;        4.8084      7.1773      0.0000
   2  Level shift: doubly occupied orbital energies shifted by -1.00D-01
 -----------------------------------------------------------------------------
   3  Screening settings (-IFTHRS, JTDIIS, DIFDEN, times)   -9    3    T  4.36D+00  4.37D+00
@  3    -797.911455107        8.14154D-01   -4.08D-01    3
      Virial theorem: -V/T =      2.001120
@    MULPOP   C_a     0.46; C_b     0.11; C_c     0.74; C_d     0.60; C_e     0.85; C_f     1.03; C_g     0.74; C_h     0.65; C_i     1.08; C_j     1.21; 
@             C_k     0.17; C_l     0.78; C_m     0.81; C_n    -0.35; N_a     0.19; N_b     0.71; O_a    -0.71; O_b    -0.82; H_a    -0.47; H_b    -0.70; 
@             H_c    -0.43; H_d    -0.48; H_e    -0.62; H_f    -0.53; H_g    -0.57; H_h    -0.63; H_i    -0.53; H_j    -0.67; H_k    -0.58; H_l    -0.36; 
@    MULPOP    dipole moment & components:      7.9475;        3.7989      6.9808      0.0000
   3  Level shift: doubly occupied orbital energies shifted by -5.00D-02
 -----------------------------------------------------------------------------
   4  Screening settings (-IFTHRS, JTDIIS, DIFDEN, times)   -9    4    T  4.31D+00  4.32D+00
@  4    -797.960186233        2.55862D-01   -4.87D-02    4
      Virial theorem: -V/T =      2.002722
@    MULPOP   C_a     0.39; C_b     0.13; C_c     0.72; C_d     0.55; C_e     0.83; C_f     1.02; C_g     0.74; C_h     0.60; C_i     1.04; C_j     1.18; 
@             C_k     0.12; C_l     0.67; C_m     0.81; C_n    -0.34; N_a     0.20; N_b     0.51; O_a    -0.59; O_b    -0.77; H_a    -0.41; H_b    -0.66; 
@             H_c    -0.41; H_d    -0.47; H_e    -0.60; H_f    -0.49; H_g    -0.54; H_h    -0.60; H_i    -0.48; H_j    -0.63; H_k    -0.55; H_l    -0.34; 
@    MULPOP    dipole moment & components:      7.6253;        3.4353      6.8077      0.0000
   4  Level shift: doubly occupied orbital energies shifted by -2.50D-02
 -----------------------------------------------------------------------------
   5  Screening settings (-IFTHRS, JTDIIS, DIFDEN, times)  -13    5    F  4.47D+00  4.49D+00
@  5    -797.969926941        1.04283D-01   -9.74D-03    5
      Virial theorem: -V/T =      2.002221
@    MULPOP   C_a     0.43; C_b     0.06; C_c     0.73; C_d     0.51; C_e     0.85; C_f     0.99; C_g     0.73; C_h     0.57; C_i     1.04; C_j     1.18; 
@             C_k     0.13; C_l     0.64; C_m     0.83; C_n    -0.38; N_a     0.19; N_b     0.51; O_a    -0.61; O_b    -0.75; H_a    -0.39; H_b    -0.64; 
@             H_c    -0.41; H_d    -0.46; H_e    -0.59; H_f    -0.48; H_g    -0.52; H_h    -0.59; H_i    -0.47; H_j    -0.62; H_k    -0.54; H_l    -0.33; 
@    MULPOP    dipole moment & components:      6.8924;        2.6230      6.3737      0.0000
   5  Level shift: doubly occupied orbital energies shifted by -1.25D-02
 -----------------------------------------------------------------------------
   6  Screening settings (-IFTHRS, JTDIIS, DIFDEN, times)  -13    6    T  4.46D+00  4.48D+00
@  6    -797.972474850        5.28345D-02   -2.55D-03    6
      Virial theorem: -V/T =      2.002076
@    MULPOP   C_a     0.45; C_b     0.05; C_c     0.76; C_d     0.48; C_e     0.85; C_f     0.98; C_g     0.75; C_h     0.56; C_i     1.05; C_j     1.16; 
@             C_k     0.11; C_l     0.63; C_m     0.84; C_n    -0.35; N_a     0.18; N_b     0.51; O_a    -0.60; O_b    -0.76; H_a    -0.41; H_b    -0.65; 
@             H_c    -0.38; H_d    -0.45; H_e    -0.58; H_f    -0.49; H_g    -0.52; H_h    -0.57; H_i    -0.47; H_j    -0.62; H_k    -0.53; H_l    -0.33; 
@    MULPOP    dipole moment & components:      6.7812;        2.4587      6.3197      0.0000
   6  Level shift: doubly occupied orbital energies shifted by -1.25D-02
 -----------------------------------------------------------------------------
   7  Screening settings (-IFTHRS, JTDIIS, DIFDEN, times)  -13    7    T  4.41D+00  4.42D+00
@  7    -797.973271250        2.43512D-02   -7.96D-04    7
      Virial theorem: -V/T =      2.002102
@    MULPOP   C_a     0.46; C_b     0.03; C_c     0.78; C_d     0.47; C_e     0.85; C_f     0.97; C_g     0.75; C_h     0.56; C_i     1.05; C_j     1.15; 
@             C_k     0.10; C_l     0.64; C_m     0.84; C_n    -0.34; N_a     0.17; N_b     0.51; O_a    -0.61; O_b    -0.74; H_a    -0.41; H_b    -0.66; 
@             H_c    -0.38; H_d    -0.44; H_e    -0.58; H_f    -0.49; H_g    -0.52; H_h    -0.57; H_i    -0.47; H_j    -0.62; H_k    -0.53; H_l    -0.33; 
@    MULPOP    dipole moment & components:      6.6581;        2.3603      6.2257      0.0000
 -----------------------------------------------------------------------------
   8  Screening settings (-IFTHRS, JTDIIS, DIFDEN, times)  -13    8    T  4.45D+00  4.46D+00
@  8    -797.973435475        1.03110D-02   -1.64D-04    8
      Virial theorem: -V/T =      2.002102
@    MULPOP   C_a     0.47; C_b     0.02; C_c     0.79; C_d     0.47; C_e     0.86; C_f     0.97; C_g     0.75; C_h     0.56; C_i     1.04; C_j     1.16; 
@             C_k     0.10; C_l     0.64; C_m     0.83; C_n    -0.34; N_a     0.17; N_b     0.50; O_a    -0.60; O_b    -0.74; H_a    -0.41; H_b    -0.65; 
@             H_c    -0.39; H_d    -0.45; H_e    -0.58; H_f    -0.49; H_g    -0.52; H_h    -0.57; H_i    -0.47; H_j    -0.62; H_k    -0.53; H_l    -0.33; 
@    MULPOP    dipole moment & components:      6.5055;        2.1985      6.1228      0.0000
 -----------------------------------------------------------------------------
   9  Screening settings (-IFTHRS, JTDIIS, DIFDEN, times)  -13    9    T  4.43D+00  4.45D+00
@  9    -797.973461202        4.02953D-03   -2.57D-05    8
      Virial theorem: -V/T =      2.002093
@    MULPOP   C_a     0.46; C_b     0.03; C_c     0.79; C_d     0.46; C_e     0.86; C_f     0.97; C_g     0.75; C_h     0.56; C_i     1.04; C_j     1.16; 
@             C_k     0.10; C_l     0.64; C_m     0.83; C_n    -0.34; N_a     0.18; N_b     0.50; O_a    -0.60; O_b    -0.74; H_a    -0.41; H_b    -0.65; 
@             H_c    -0.39; H_d    -0.45; H_e    -0.58; H_f    -0.49; H_g    -0.52; H_h    -0.58; H_i    -0.47; H_j    -0.62; H_k    -0.53; H_l    -0.33; 
@    MULPOP    dipole moment & components:      6.4278;        2.1499      6.0576      0.0000
 -----------------------------------------------------------------------------
  10  Screening settings (-IFTHRS, JTDIIS, DIFDEN, times)  -13   10    T  4.41D+00  4.42D+00
@ 10    -797.973466829        2.27438D-03   -5.63D-06    8
      Virial theorem: -V/T =      2.002093
@    MULPOP   C_a     0.47; C_b     0.03; C_c     0.79; C_d     0.47; C_e     0.86; C_f     0.97; C_g     0.75; C_h     0.56; C_i     1.04; C_j     1.16; 
@             C_k     0.10; C_l     0.65; C_m     0.83; C_n    -0.34; N_a     0.18; N_b     0.50; O_a    -0.60; O_b    -0.74; H_a    -0.41; H_b    -0.65; 
@             H_c    -0.39; H_d    -0.45; H_e    -0.58; H_f    -0.49; H_g    -0.52; H_h    -0.57; H_i    -0.47; H_j    -0.62; H_k    -0.53; H_l    -0.33; 
@    MULPOP    dipole moment & components:      6.3941;        2.1357      6.0268      0.0000
 -----------------------------------------------------------------------------
  11  Screening settings (-IFTHRS, JTDIIS, DIFDEN, times)  -13   11    T  4.40D+00  4.42D+00
@ 11    -797.973469091        1.27006D-03   -2.26D-06    8
      Virial theorem: -V/T =      2.002094
@    MULPOP   C_a     0.46; C_b     0.03; C_c     0.79; C_d     0.47; C_e     0.86; C_f     0.97; C_g     0.75; C_h     0.57; C_i     1.04; C_j     1.17; 
@             C_k     0.10; C_l     0.65; C_m     0.83; C_n    -0.34; N_a     0.18; N_b     0.50; O_a    -0.60; O_b    -0.74; H_a    -0.41; H_b    -0.65; 
@             H_c    -0.39; H_d    -0.45; H_e    -0.58; H_f    -0.49; H_g    -0.52; H_h    -0.57; H_i    -0.47; H_j    -0.62; H_k    -0.53; H_l    -0.33; 
@    MULPOP    dipole moment & components:      6.3644;        2.1227      6.0000      0.0000
 -----------------------------------------------------------------------------
  12  Screening settings (-IFTHRS, JTDIIS, DIFDEN, times)  -13   12    T  4.45D+00  4.47D+00
@ 12    -797.973469792        4.07374D-04   -7.00D-07    8
      Virial theorem: -V/T =      2.002093
@    MULPOP   C_a     0.47; C_b     0.03; C_c     0.79; C_d     0.47; C_e     0.86; C_f     0.97; C_g     0.75; C_h     0.57; C_i     1.04; C_j     1.17; 
@             C_k     0.10; C_l     0.65; C_m     0.82; C_n    -0.34; N_a     0.18; N_b     0.50; O_a    -0.60; O_b    -0.74; H_a    -0.41; H_b    -0.65; 
@             H_c    -0.39; H_d    -0.45; H_e    -0.58; H_f    -0.49; H_g    -0.52; H_h    -0.57; H_i    -0.47; H_j    -0.62; H_k    -0.53; H_l    -0.33; 
@    MULPOP    dipole moment & components:      6.3431;        2.1133      5.9807      0.0000
 -----------------------------------------------------------------------------
  13  Screening settings (-IFTHRS, JTDIIS, DIFDEN, times)  -13   13    T  4.38D+00  4.39D+00
@ 13    -797.973469862        1.70653D-04   -7.06D-08    8
      Virial theorem: -V/T =      2.002093
@    MULPOP   C_a     0.47; C_b     0.03; C_c     0.79; C_d     0.47; C_e     0.86; C_f     0.97; C_g     0.75; C_h     0.57; C_i     1.04; C_j     1.17; 
@             C_k     0.10; C_l     0.65; C_m     0.82; C_n    -0.34; N_a     0.18; N_b     0.50; O_a    -0.60; O_b    -0.74; H_a    -0.41; H_b    -0.65; 
@             H_c    -0.39; H_d    -0.45; H_e    -0.58; H_f    -0.49; H_g    -0.52; H_h    -0.57; H_i    -0.47; H_j    -0.62; H_k    -0.53; H_l    -0.33; 
@    MULPOP    dipole moment & components:      6.3358;        2.1101      5.9741      0.0000
 -----------------------------------------------------------------------------
  14  Screening settings (-IFTHRS, JTDIIS, DIFDEN, times)  -13   14    T  4.35D+00  4.36D+00
@ 14    -797.973469868        6.97231D-05   -5.58D-09    8
      Virial theorem: -V/T =      2.002093
@    MULPOP   C_a     0.47; C_b     0.03; C_c     0.79; C_d     0.47; C_e     0.86; C_f     0.97; C_g     0.75; C_h     0.57; C_i     1.04; C_j     1.17; 
@             C_k     0.10; C_l     0.65; C_m     0.82; C_n    -0.34; N_a     0.18; N_b     0.50; O_a    -0.60; O_b    -0.74; H_a    -0.41; H_b    -0.65; 
@             H_c    -0.39; H_d    -0.45; H_e    -0.58; H_f    -0.49; H_g    -0.52; H_h    -0.57; H_i    -0.47; H_j    -0.62; H_k    -0.53; H_l    -0.33; 
@    MULPOP    dipole moment & components:      6.3346;        2.1094      5.9730      0.0000
 -----------------------------------------------------------------------------
  15  Screening settings (-IFTHRS, JTDIIS, DIFDEN, times)  -13   15    T  4.32D+00  4.34D+00
@ 15    -797.973469869        3.25902D-05   -1.03D-09    8
      Virial theorem: -V/T =      2.002093
@    MULPOP   C_a     0.47; C_b     0.03; C_c     0.79; C_d     0.47; C_e     0.86; C_f     0.97; C_g     0.75; C_h     0.57; C_i     1.04; C_j     1.17; 
@             C_k     0.10; C_l     0.65; C_m     0.82; C_n    -0.34; N_a     0.18; N_b     0.50; O_a    -0.60; O_b    -0.74; H_a    -0.41; H_b    -0.65; 
@             H_c    -0.39; H_d    -0.45; H_e    -0.58; H_f    -0.49; H_g    -0.52; H_h    -0.57; H_i    -0.47; H_j    -0.62; H_k    -0.53; H_l    -0.33; 
@    MULPOP    dipole moment & components:      6.3340;        2.1092      5.9725      0.0000
 -----------------------------------------------------------------------------
  16  Screening settings (-IFTHRS, JTDIIS, DIFDEN, times)  -13   16    T  4.26D+00  4.27D+00
@ 16    -797.973469869        1.36272D-05   -1.16D-10    8
      Virial theorem: -V/T =      2.002093
@    MULPOP   C_a     0.47; C_b     0.03; C_c     0.79; C_d     0.47; C_e     0.86; C_f     0.97; C_g     0.75; C_h     0.57; C_i     1.04; C_j     1.17; 
@             C_k     0.10; C_l     0.65; C_m     0.82; C_n    -0.34; N_a     0.18; N_b     0.50; O_a    -0.60; O_b    -0.74; H_a    -0.41; H_b    -0.65; 
@             H_c    -0.39; H_d    -0.45; H_e    -0.58; H_f    -0.49; H_g    -0.52; H_h    -0.57; H_i    -0.47; H_j    -0.62; H_k    -0.53; H_l    -0.33; 
@    MULPOP    dipole moment & components:      6.3339;        2.1091      5.9724      0.0000
 -----------------------------------------------------------------------------
  17  Screening settings (-IFTHRS, JTDIIS, DIFDEN, times)  -13   17    T  4.27D+00  4.28D+00
@ 17    -797.973469869        8.45502D-06   -1.31D-10    8

@ *** DIIS converged in  17 iterations !
@     Converged SCF energy, gradient:   -797.973469869018    8.46D-06
    - total time used in SIRFCK :              0.00 seconds


 *** SCF orbital energy analysis ***

 Only the 20 lowest virtual orbital energies printed in each symmetry.

 Number of electrons :  130
 Orbital occupations :   65

 Sym       Hartree-Fock orbital energies

1 A     -20.59445023   -20.59170884   -15.84238212   -15.60561713   -11.31536055
        -11.29213593   -11.29016835   -11.28116541   -11.27296952   -11.26702704
        -11.26593844   -11.26321070   -11.26051039   -11.25497356   -11.25061780
        -11.24561357   -11.24024255   -11.23757840    -1.58049104    -1.37800432
         -1.24547540    -1.14217598    -1.12495959    -1.10870263    -1.08536849
         -1.05492517    -1.01823803    -0.97615999    -0.93795301    -0.87684766
         -0.83328368    -0.80128343    -0.78409485    -0.77956845    -0.76578842
         -0.76232131    -0.73352403    -0.72381070    -0.71010586    -0.69332068
         -0.68651018    -0.66657838    -0.65528918    -0.62825782    -0.62318069
         -0.59785889    -0.58087114    -0.57159119    -0.55181114    -0.54348973
         -0.53564982    -0.52924914    -0.52357097    -0.51460374    -0.50536970
         -0.49412961    -0.47792379    -0.47446831    -0.47375085    -0.44452728
         -0.43653368    -0.40485628    -0.35590885    -0.29975974    -0.24216134
         -0.00059420     0.00433371     0.00732435     0.00997495     0.01189840
          0.01241107     0.01432932     0.01553869     0.01759403     0.01994906
          0.02075974     0.02143802     0.02404782     0.02430424     0.02487452
          0.02489782     0.02774227     0.02901096     0.03086986     0.03115756

    E(LUMO) :    -0.00059420 au (symmetry 1)
  - E(HOMO) :    -0.24216134 au (symmetry 1)
  ------------------------------------------
    gap     :     0.24156714 au

 --- Writing SIRIFC interface file

 CPU and wall time for SCF :     136.174     136.999


                       .-----------------------------------.
                       | --- Final results from SIRIUS --- |
                       `-----------------------------------'


@    Spin multiplicity:           1
@    Spatial symmetry:            1 ( irrep  A   in C1  )
@    Total charge of molecule:    0

@    Final HF energy:            -797.973469869018                 
@    Nuclear repulsion:           980.156376287948
@    Electronic energy:         -1778.129846156966

@    Final gradient norm:           0.000008455018

 
     Date and time (Linux)  : Wed May 28 00:59:18 2025
     Host name              : xm023                                   

File label for MO orbitals:  28May25   FOCKDIIS

 (Only coefficients > 0.0100 are printed.)

 Molecular orbitals for symmetry species 1  (A  )
 ------------------------------------------------

    Orbital        56       57       58       59       60       61       62
   2 C_a :1s    -0.0000   0.0997  -0.0069  -0.0000  -0.0000  -0.0000   0.0000
   3 C_a :1s    -0.0000   0.0322  -0.0679   0.0000  -0.0000  -0.0000  -0.0000
   4 C_a :1s     0.0000  -0.2176   0.0991  -0.0000   0.0000   0.0000  -0.0000
   5 C_a :1s     0.0000  -0.1404   0.0688  -0.0000  -0.0000  -0.0000  -0.0000
   6 C_a :2px   -0.0000  -0.1310  -0.0704   0.0000   0.0000   0.0000   0.0000
   7 C_a :2py   -0.0000  -0.2967   0.1191   0.0000  -0.0000  -0.0000  -0.0000
   8 C_a :2pz   -0.1523  -0.0000  -0.0000   0.1903   0.2482  -0.0318   0.2964
   9 C_a :2px   -0.0000   0.1303   0.0900   0.0000  -0.0000  -0.0000  -0.0000
  10 C_a :2py    0.0000   0.1218  -0.0615  -0.0000   0.0000  -0.0000  -0.0000
  11 C_a :2pz   -0.0032   0.0000  -0.0000   0.0053   0.0090   0.0076   0.0103
  12 C_a :2px    0.0000   0.2623   0.2551  -0.0000   0.0000   0.0000   0.0000
  13 C_a :2py   -0.0000  -0.4113   0.4178   0.0000   0.0000   0.0000   0.0000
  14 C_a :2pz    0.4463   0.0000  -0.0000   0.4346   0.1178   0.1090   0.2707
  15 C_a :2px    0.0000   0.0617  -0.0090  -0.0000  -0.0000  -0.0000  -0.0000
  16 C_a :2py    0.0000   0.0981   0.0157  -0.0000  -0.0000  -0.0000  -0.0000
  17 C_a :2pz    0.0273   0.0000   0.0000   0.0010  -0.0192  -0.0381  -0.0125
  18 C_a :3d2-   0.0000   0.0129  -0.0043   0.0000   0.0000  -0.0000  -0.0000
  21 C_a :3d1+  -0.0105   0.0000  -0.0000   0.0119   0.0138   0.0019   0.0130
  22 C_a :3d2+  -0.0000  -0.0191  -0.0006   0.0000   0.0000  -0.0000  -0.0000
  23 C_a :3d2-  -0.0000   0.0189   0.0251  -0.0000  -0.0000  -0.0000  -0.0000
  26 C_a :3d1+  -0.0053   0.0000  -0.0000   0.0107   0.0121   0.0248   0.0089
  27 C_a :3d2+  -0.0000   0.0588  -0.0121   0.0000  -0.0000  -0.0000   0.0000
  28 C_a :3d2-  -0.0000  -0.0511  -0.0826   0.0000   0.0000   0.0000   0.0000
  29 C_a :3d1-   0.0258  -0.0000   0.0000   0.0438   0.0255   0.0001   0.0336
  30 C_a :3d0    0.0000  -0.0430   0.0580  -0.0000  -0.0000  -0.0000  -0.0000
  31 C_a :3d1+   0.1027   0.0000   0.0000   0.0897   0.0164   0.0138   0.0531
  32 C_a :3d2+  -0.0000   0.0410   0.0236  -0.0000  -0.0000  -0.0000  -0.0000
  34 C_b :1s    -0.0000  -0.0188  -0.0526   0.0000   0.0000   0.0000   0.0000
  35 C_b :1s     0.0000  -0.2086  -0.0786   0.0000   0.0000   0.0000  -0.0000
  36 C_b :1s    -0.0000  -0.2048   0.1754   0.0000   0.0000   0.0000  -0.0000
  37 C_b :1s     0.0000  -0.1313   0.0638  -0.0000   0.0000   0.0000   0.0000
  38 C_b :2px    0.0000   0.1297   0.0176   0.0000  -0.0000  -0.0000  -0.0000
  39 C_b :2py   -0.0000   0.0760   0.0860   0.0000  -0.0000  -0.0000   0.0000
  40 C_b :2pz   -0.2144   0.0000   0.0000   0.2397   0.2661  -0.0226   0.2459
  41 C_b :2px   -0.0000   0.0788  -0.0170   0.0000  -0.0000  -0.0000  -0.0000
  42 C_b :2py   -0.0000  -0.0176  -0.1673   0.0000  -0.0000  -0.0000   0.0000
  43 C_b :2pz    0.0193  -0.0000   0.0000  -0.0178  -0.0162  -0.0274  -0.0048
  44 C_b :2px    0.0000  -0.1389  -0.0195   0.0000  -0.0000   0.0000  -0.0000
  45 C_b :2py   -0.0000   0.4037  -0.2084   0.0000  -0.0000  -0.0000   0.0000
  46 C_b :2pz   -0.2078   0.0000  -0.0000   0.3486   0.2823  -0.0622   0.0394
  47 C_b :2px    0.0000  -0.0947  -0.0319   0.0000   0.0000   0.0000   0.0000
  48 C_b :2py   -0.0000  -0.0569  -0.0158   0.0000   0.0000   0.0000   0.0000
  49 C_b :2pz   -0.0762   0.0000  -0.0000   0.0837   0.0725   0.0791   0.0839
  53 C_b :3d1+   0.0036   0.0000  -0.0000  -0.0062  -0.0103   0.0015  -0.0155
  55 C_b :3d2-  -0.0000   0.0388  -0.0299  -0.0000   0.0000  -0.0000  -0.0000
  59 C_b :3d2+   0.0000   0.0141   0.0170  -0.0000   0.0000   0.0000   0.0000
  60 C_b :3d2-   0.0000  -0.1298   0.1897  -0.0000   0.0000   0.0000  -0.0000
  61 C_b :3d1-   0.1610   0.0000  -0.0000   0.1561   0.0250   0.0247   0.0233
  62 C_b :3d0   -0.0000  -0.0170  -0.0818   0.0000   0.0000  -0.0000   0.0000
  63 C_b :3d1+   0.2831   0.0000  -0.0000   0.2130  -0.0039   0.0194   0.0274
  64 C_b :3d2+   0.0000   0.1996  -0.1608  -0.0000  -0.0000   0.0000  -0.0000
  66 C_c :1s     0.0000   0.0358   0.0055  -0.0000   0.0000   0.0000  -0.0000
  67 C_c :1s     0.0000  -0.1307   0.1061  -0.0000   0.0000   0.0000   0.0000
  68 C_c :1s    -0.0000   0.0408  -0.1547   0.0000  -0.0000  -0.0000   0.0000
  69 C_c :1s     0.0000  -0.1059   0.1381   0.0000  -0.0000  -0.0000   0.0000
  70 C_c :2px    0.0000  -0.0771   0.0160  -0.0000  -0.0000  -0.0000  -0.0000
  71 C_c :2py    0.0000  -0.0826  -0.0580  -0.0000   0.0000   0.0000   0.0000
  72 C_c :2pz   -0.2963   0.0000  -0.0000   0.2624   0.1745  -0.0234  -0.0056
  73 C_c :2px   -0.0000  -0.1220  -0.0903   0.0000  -0.0000  -0.0000   0.0000
  74 C_c :2py   -0.0000  -0.0073  -0.1365   0.0000  -0.0000  -0.0000  -0.0000
  75 C_c :2pz    0.0125  -0.0000  -0.0000  -0.0088  -0.0105   0.0129  -0.0113
  76 C_c :2px   -0.0000   0.0017  -0.1648   0.0000  -0.0000  -0.0000  -0.0000
  77 C_c :2py    0.0000   0.1094   0.1227  -0.0000   0.0000   0.0000   0.0000
  78 C_c :2pz    0.1150  -0.0000   0.0000   0.4310  -0.0141  -0.0333  -0.1825
  79 C_c :2px   -0.0000   0.0416  -0.0253  -0.0000  -0.0000  -0.0000  -0.0000
  80 C_c :2py    0.0000  -0.0210  -0.0120   0.0000  -0.0000   0.0000  -0.0000
  81 C_c :2pz   -0.0156  -0.0000  -0.0000   0.0058   0.0401   0.0190   0.0265
  85 C_c :3d1+  -0.0122  -0.0000   0.0000   0.0074  -0.0009  -0.0005  -0.0111
  87 C_c :3d2-   0.0000   0.0193  -0.0248  -0.0000   0.0000   0.0000  -0.0000
  91 C_c :3d2+  -0.0000  -0.0041  -0.0387   0.0000   0.0000  -0.0000  -0.0000
  92 C_c :3d2-  -0.0000   0.0885  -0.0813   0.0000  -0.0000  -0.0000   0.0000
  93 C_c :3d1-   0.0139  -0.0000   0.0000   0.3372   0.2048   0.0251   0.1406
  94 C_c :3d0    0.0000  -0.0389   0.0842  -0.0000   0.0000   0.0000  -0.0000
  95 C_c :3d1+   0.0567  -0.0000   0.0000   0.3311   0.1720   0.0285   0.1139
  96 C_c :3d2+   0.0000  -0.0819   0.0036  -0.0000   0.0000   0.0000  -0.0000
  98 C_d :1s     0.0000  -0.0245   0.0052  -0.0000  -0.0000  -0.0000   0.0000
  99 C_d :1s     0.0000   0.0609   0.1346  -0.0000  -0.0000   0.0000   0.0000
 100 C_d :1s    -0.0000   0.0004   0.0874  -0.0000  -0.0000  -0.0000   0.0000
 101 C_d :1s    -0.0000   0.1229   0.0550   0.0000  -0.0000  -0.0000   0.0000
 102 C_d :2px   -0.0000   0.0681  -0.0128  -0.0000   0.0000   0.0000   0.0000
 103 C_d :2py   -0.0000   0.0487   0.0196  -0.0000   0.0000  -0.0000   0.0000
 104 C_d :2pz   -0.3141  -0.0000   0.0000   0.2099   0.0365  -0.0131  -0.1706
 105 C_d :2px   -0.0000  -0.1235  -0.0741   0.0000  -0.0000  -0.0000  -0.0000
 106 C_d :2py   -0.0000  -0.0696   0.0189   0.0000  -0.0000  -0.0000   0.0000
 107 C_d :2pz    0.0210   0.0000   0.0000  -0.0051   0.0052  -0.0003   0.0104
 108 C_d :2px   -0.0000   0.1015   0.1207  -0.0000  -0.0000   0.0000  -0.0000
 109 C_d :2py    0.0000  -0.0287  -0.0060  -0.0000   0.0000   0.0000  -0.0000
 110 C_d :2pz   -0.1154   0.0000  -0.0000   0.6150  -0.0331  -0.0527  -0.1317
 112 C_d :2py    0.0000   0.0194   0.0349  -0.0000  -0.0000  -0.0000  -0.0000
 113 C_d :2pz    0.0799   0.0000   0.0000  -0.1424  -0.1267  -0.1220  -0.1755
 115 C_d :3d1-  -0.0082  -0.0000   0.0000   0.0005  -0.0081   0.0003  -0.0105
 117 C_d :3d1+   0.0097  -0.0000   0.0000  -0.0114  -0.0112   0.0011  -0.0038
 119 C_d :3d2-  -0.0000  -0.0091  -0.0479   0.0000  -0.0000  -0.0000  -0.0000
 123 C_d :3d2+   0.0000   0.0496   0.0009  -0.0000  -0.0000  -0.0000  -0.0000
 124 C_d :3d2-   0.0000  -0.0086   0.0348  -0.0000  -0.0000   0.0000  -0.0000
 125 C_d :3d1-   0.2327  -0.0000  -0.0000   0.4353   0.0072  -0.0274  -0.0650
 126 C_d :3d0   -0.0000   0.0471  -0.0121   0.0000  -0.0000  -0.0000   0.0000
 127 C_d :3d1+   0.2244  -0.0000  -0.0000   0.5055   0.0016  -0.0346  -0.1216
 128 C_d :3d2+   0.0000   0.0899  -0.1653  -0.0000  -0.0000  -0.0000  -0.0000
 130 C_e :1s    -0.0000   0.0160   0.0067   0.0000  -0.0000   0.0000   0.0000
 131 C_e :1s     0.0000   0.0723   0.0652  -0.0000  -0.0000  -0.0000  -0.0000
 132 C_e :1s     0.0000   0.0310   0.0702  -0.0000  -0.0000   0.0000  -0.0000
 133 C_e :1s    -0.0000  -0.0574   0.0946   0.0000  -0.0000   0.0000  -0.0000
 134 C_e :2px   -0.0000  -0.0320  -0.0068   0.0000   0.0000   0.0000   0.0000
 135 C_e :2py    0.0000  -0.0484  -0.0164   0.0000  -0.0000  -0.0000  -0.0000
 136 C_e :2pz   -0.3195  -0.0000   0.0000   0.0810  -0.1874   0.0057  -0.2864
 137 C_e :2px   -0.0000  -0.0425   0.0444   0.0000  -0.0000  -0.0000   0.0000
 138 C_e :2py   -0.0000  -0.0621  -0.0149   0.0000  -0.0000  -0.0000   0.0000
 139 C_e :2pz    0.0174   0.0000  -0.0000  -0.0073  -0.0042  -0.0031   0.0040
 140 C_e :2px   -0.0000  -0.0663  -0.0402   0.0000   0.0000  -0.0000   0.0000
 141 C_e :2py    0.0000   0.1760  -0.1339  -0.0000  -0.0000  -0.0000  -0.0000
 142 C_e :2pz   -0.6325   0.0000  -0.0000   0.2786  -0.0913  -0.0065  -0.1430
 143 C_e :2px    0.0000  -0.0983   0.0952  -0.0000   0.0000   0.0000   0.0000
 144 C_e :2py   -0.0000  -0.0442  -0.0077  -0.0000   0.0000  -0.0000   0.0000
 145 C_e :2pz    0.0095   0.0000   0.0000   0.0324  -0.0431   0.0382  -0.0032
 149 C_e :3d1+  -0.0101   0.0000   0.0000  -0.0035  -0.0132   0.0011  -0.0076
 151 C_e :3d2-   0.0000  -0.0187  -0.0319   0.0000  -0.0000  -0.0000  -0.0000
 156 C_e :3d2-   0.0000   0.0750  -0.0035  -0.0000  -0.0000  -0.0000  -0.0000
 157 C_e :3d1-  -0.0209  -0.0000   0.0000   0.6111   0.1274   0.0116   0.0219
 158 C_e :3d0   -0.0000  -0.0083  -0.0314   0.0000  -0.0000  -0.0000   0.0000
 159 C_e :3d1+  -0.0853   0.0000   0.0000   0.7242   0.2257   0.0124   0.0797
 160 C_e :3d2+  -0.0000  -0.0907   0.0112   0.0000  -0.0000  -0.0000  -0.0000
 163 C_f :1s    -0.0000   0.0625   0.0080  -0.0000   0.0000  -0.0000  -0.0000
 164 C_f :1s    -0.0000   0.0072  -0.1073   0.0000   0.0000  -0.0000   0.0000
 165 C_f :1s    -0.0000   0.2295  -0.1057  -0.0000   0.0000   0.0000   0.0000
 166 C_f :2px    0.0000   0.0282   0.0048  -0.0000  -0.0000  -0.0000  -0.0000
 167 C_f :2py    0.0000   0.0274   0.0030  -0.0000  -0.0000  -0.0000  -0.0000
 168 C_f :2pz   -0.2993  -0.0000   0.0000  -0.0248  -0.2677   0.0164  -0.1877
 169 C_f :2px   -0.0000  -0.0303   0.0254   0.0000  -0.0000  -0.0000   0.0000
 170 C_f :2py   -0.0000   0.0141   0.0545   0.0000  -0.0000  -0.0000  -0.0000
 171 C_f :2pz    0.0187   0.0000  -0.0000   0.0071   0.0107   0.0019  -0.0044
 172 C_f :2px   -0.0000   0.0257  -0.0434   0.0000   0.0000  -0.0000   0.0000
 173 C_f :2py    0.0000  -0.0116  -0.0196  -0.0000  -0.0000  -0.0000  -0.0000
 174 C_f :2pz   -0.2847   0.0000  -0.0000  -0.0377  -0.6182   0.0899  -0.1592
 175 C_f :2px   -0.0000  -0.0074   0.0314   0.0000  -0.0000   0.0000   0.0000
 176 C_f :2py   -0.0000  -0.0994   0.0286   0.0000   0.0000   0.0000   0.0000
 177 C_f :2pz   -0.0125  -0.0000  -0.0000   0.1481   0.1440   0.0935   0.2169
 181 C_f :3d1+   0.0112   0.0000   0.0000  -0.0061   0.0054   0.0001   0.0158
 183 C_f :3d2-   0.0000  -0.0231  -0.0018  -0.0000  -0.0000  -0.0000  -0.0000
 187 C_f :3d2+   0.0000   0.0127  -0.0085  -0.0000   0.0000   0.0000   0.0000
 188 C_f :3d2-  -0.0000  -0.0030  -0.0614   0.0000   0.0000   0.0000   0.0000
 189 C_f :3d1-  -0.0574   0.0000  -0.0000   0.5659  -0.1136  -0.0187  -0.1671
 190 C_f :3d0    0.0000  -0.0061   0.0325  -0.0000   0.0000   0.0000  -0.0000
 191 C_f :3d1+  -0.1383   0.0000  -0.0000   0.7173  -0.1314  -0.0280  -0.1847
 192 C_f :3d2+  -0.0000  -0.0197  -0.0538  -0.0000   0.0000   0.0000  -0.0000
 195 C_g :1s    -0.0000   0.0328  -0.0406   0.0000   0.0000   0.0000  -0.0000
 196 C_g :1s    -0.0000  -0.0949   0.0055   0.0000   0.0000   0.0000   0.0000
 197 C_g :1s    -0.0000  -0.0975  -0.0257   0.0000   0.0000   0.0000  -0.0000
 198 C_g :2px   -0.0000  -0.0163  -0.0039   0.0000  -0.0000  -0.0000   0.0000
 199 C_g :2py   -0.0000  -0.0267  -0.0033  -0.0000   0.0000   0.0000   0.0000
 200 C_g :2pz   -0.2619   0.0000   0.0000  -0.1736  -0.2649   0.0243   0.0994
 201 C_g :2px   -0.0000   0.0282   0.0139   0.0000  -0.0000  -0.0000  -0.0000
 202 C_g :2py   -0.0000  -0.0024   0.0337   0.0000  -0.0000  -0.0000  -0.0000
 203 C_g :2pz    0.0132  -0.0000  -0.0000   0.0033   0.0098  -0.0010   0.0102
 204 C_g :2px    0.0000   0.1129   0.0838  -0.0000  -0.0000  -0.0000  -0.0000
 205 C_g :2py   -0.0000  -0.1882   0.0019   0.0000   0.0000   0.0000  -0.0000
 206 C_g :2pz   -0.1720   0.0000  -0.0000  -0.1742  -0.5963   0.0121   0.0744
 207 C_g :2px   -0.0000   0.0184  -0.0130   0.0000  -0.0000  -0.0000   0.0000
 208 C_g :2py    0.0000   0.0707   0.0641   0.0000  -0.0000   0.0000  -0.0000
 209 C_g :2pz   -0.0142  -0.0000   0.0000  -0.0627   0.0313  -0.0713  -0.0393
 213 C_g :3d1+  -0.0066   0.0000  -0.0000  -0.0110  -0.0048   0.0008   0.0141
 220 C_g :3d2-  -0.0000   0.0008   0.0101   0.0000   0.0000   0.0000   0.0000
 221 C_g :3d1-  -0.2293   0.0000   0.0000   0.5861  -0.1418   0.0358  -0.0311
 222 C_g :3d0   -0.0000  -0.0019  -0.0111  -0.0000   0.0000   0.0000   0.0000
 223 C_g :3d1+  -0.2427   0.0000   0.0000   0.7641  -0.1585   0.0345  -0.0538
 224 C_g :3d2+  -0.0000  -0.0768  -0.0108   0.0000   0.0000   0.0000   0.0000
 227 C_h :1s     0.0000  -0.0128  -0.0242  -0.0000   0.0000  -0.0000  -0.0000
 228 C_h :1s     0.0000  -0.0286   0.1067  -0.0000  -0.0000   0.0000  -0.0000
 229 C_h :1s     0.0000   0.0940   0.0056  -0.0000  -0.0000  -0.0000  -0.0000
 230 C_h :2px    0.0000   0.0140   0.0034   0.0000  -0.0000   0.0000  -0.0000
 231 C_h :2py   -0.0000   0.0142   0.0019  -0.0000   0.0000   0.0000  -0.0000
 232 C_h :2pz   -0.2252   0.0000   0.0000  -0.2465  -0.1671   0.0197   0.2388
 233 C_h :2px   -0.0000   0.0211   0.0044   0.0000  -0.0000  -0.0000  -0.0000
 234 C_h :2py   -0.0000   0.0150  -0.0086   0.0000  -0.0000  -0.0000  -0.0000
 235 C_h :2pz    0.0127   0.0000  -0.0000   0.0137  -0.0008  -0.0006  -0.0110
 236 C_h :2px    0.0000   0.0431   0.0066  -0.0000  -0.0000  -0.0000   0.0000
 237 C_h :2py   -0.0000   0.0398  -0.1051   0.0000   0.0000  -0.0000   0.0000
 238 C_h :2pz   -0.3987  -0.0000  -0.0000  -0.4897  -0.1692   0.0405   0.3916
 239 C_h :2px    0.0000  -0.0123   0.0507  -0.0000  -0.0000   0.0000  -0.0000
 240 C_h :2py   -0.0000   0.1490  -0.0466   0.0000  -0.0000  -0.0000  -0.0000
 241 C_h :2pz   -0.0651   0.0000   0.0000  -0.1001  -0.1341  -0.0338  -0.1672
 245 C_h :3d1+   0.0096  -0.0000  -0.0000   0.0037   0.0133  -0.0011  -0.0011
 252 C_h :3d2-  -0.0000  -0.0228   0.0114  -0.0000  -0.0000   0.0000  -0.0000
 253 C_h :3d1-  -0.2703  -0.0000  -0.0000   0.4438  -0.3491   0.0061  -0.0759
 255 C_h :3d1+  -0.3067   0.0000  -0.0000   0.5416  -0.5058   0.0129  -0.0840
 256 C_h :3d2+   0.0000   0.0315   0.0405  -0.0000  -0.0000  -0.0000  -0.0000
 260 C_i :1s    -0.0000   0.0589  -0.0491   0.0000   0.0000  -0.0000   0.0000
 261 C_i :1s    -0.0000  -0.0973  -0.0492   0.0000  -0.0000  -0.0000   0.0000
 263 C_i :2py    0.0000  -0.0140  -0.0020   0.0000  -0.0000  -0.0000  -0.0000
 264 C_i :2pz   -0.1749  -0.0000  -0.0000  -0.3109   0.0439   0.0034   0.2682
 265 C_i :2px   -0.0000   0.0035  -0.0130   0.0000  -0.0000  -0.0000  -0.0000
 266 C_i :2py   -0.0000   0.0111  -0.0035   0.0000  -0.0000  -0.0000  -0.0000
 267 C_i :2pz    0.0130   0.0000   0.0000   0.0120   0.0043   0.0000  -0.0069
 268 C_i :2px    0.0000   0.0107  -0.0137   0.0000   0.0000   0.0000  -0.0000
 269 C_i :2py   -0.0000  -0.0107  -0.0262   0.0000  -0.0000  -0.0000   0.0000
 270 C_i :2pz   -0.0340   0.0000   0.0000  -0.5245  -0.1207   0.0359   0.3296
 271 C_i :2px    0.0000   0.0233   0.0209  -0.0000   0.0000   0.0000  -0.0000
 272 C_i :2py    0.0000  -0.0966   0.0004  -0.0000   0.0000   0.0000   0.0000
 273 C_i :2pz    0.0188   0.0000  -0.0000   0.0582  -0.0183   0.0599   0.0523
 277 C_i :3d1+  -0.0034  -0.0000  -0.0000  -0.0111   0.0104  -0.0007   0.0037
 284 C_i :3d2-  -0.0000   0.0157  -0.0048   0.0000   0.0000  -0.0000   0.0000
 285 C_i :3d1-  -0.3560   0.0000  -0.0000   0.3430  -0.2874   0.0352   0.1058
 287 C_i :3d1+  -0.4309   0.0000   0.0000   0.4773  -0.3875   0.0554   0.1238
 288 C_i :3d2+  -0.0000   0.0187   0.0230   0.0000  -0.0000   0.0000   0.0000
 292 C_j :1s     0.0000  -0.0202  -0.0357  -0.0000   0.0000   0.0000  -0.0000
 293 C_j :1s     0.0000   0.0021   0.0426  -0.0000   0.0000   0.0000   0.0000
 296 C_j :2pz   -0.1374  -0.0000  -0.0000  -0.3090   0.1765  -0.0093   0.1340
 298 C_j :2py    0.0000  -0.0016  -0.0109  -0.0000  -0.0000  -0.0000  -0.0000
 299 C_j :2pz    0.0107   0.0000   0.0000   0.0158  -0.0144   0.0007   0.0079
 301 C_j :2py    0.0000  -0.0296   0.0809  -0.0000  -0.0000   0.0000  -0.0000
 302 C_j :2pz    0.0206   0.0000   0.0000  -0.4354   0.2687  -0.0291   0.1609
 303 C_j :2px   -0.0000  -0.0102  -0.0315   0.0000   0.0000   0.0000   0.0000
 304 C_j :2py    0.0000  -0.1206   0.0883  -0.0000   0.0000   0.0000   0.0000
 305 C_j :2pz    0.0952  -0.0000  -0.0000   0.0305   0.1061  -0.0058   0.0732
 309 C_j :3d1+   0.0066   0.0000  -0.0000   0.0105   0.0024  -0.0005  -0.0158
 316 C_j :3d2-  -0.0000   0.0010  -0.0188   0.0000  -0.0000   0.0000  -0.0000
 317 C_j :3d1-  -0.3065   0.0000  -0.0000   0.1623  -0.3806   0.0259   0.1155
 319 C_j :3d1+  -0.4167   0.0000  -0.0000   0.1780  -0.4624   0.0392   0.1887
 320 C_j :3d2+   0.0000   0.0252   0.0269  -0.0000   0.0000   0.0000  -0.0000
 325 C_k :1s    -0.0000  -0.0129  -0.1022   0.0000   0.0000  -0.0000   0.0000
 328 C_k :2pz   -0.0896   0.0000  -0.0000  -0.2643   0.3007  -0.0234  -0.1546
 333 C_k :2py    0.0000   0.0567  -0.0468  -0.0000   0.0000   0.0000   0.0000
 334 C_k :2pz    0.1284  -0.0000  -0.0000  -0.3725   0.4682  -0.0496  -0.0917
 335 C_k :2px   -0.0000  -0.0478   0.0365  -0.0000  -0.0000  -0.0000   0.0000
 336 C_k :2py   -0.0000   0.0853   0.0120  -0.0000  -0.0000   0.0000   0.0000
 337 C_k :2pz   -0.0253  -0.0000   0.0000  -0.0326  -0.0054  -0.0280  -0.0274
 341 C_k :3d1+  -0.0008   0.0000   0.0000  -0.0051   0.0114  -0.0010  -0.0150
 349 C_k :3d1-  -0.2921   0.0000   0.0000   0.1003  -0.2062   0.0242   0.1475
 351 C_k :3d1+  -0.4249   0.0000   0.0000   0.1430  -0.2695   0.0307   0.1975
 352 C_k :3d2+   0.0000   0.0243  -0.0041   0.0000  -0.0000   0.0000  -0.0000
 356 C_l :1s    -0.0000   0.0124  -0.0447   0.0000   0.0000   0.0000   0.0000
 357 C_l :1s    -0.0000   0.0418  -0.0449   0.0000   0.0000   0.0000   0.0000
 360 C_l :2pz   -0.0558   0.0000  -0.0000  -0.1949   0.2866  -0.0243  -0.2661
 363 C_l :2pz    0.0080  -0.0000   0.0000   0.0127  -0.0155   0.0013   0.0159
 364 C_l :2px   -0.0000  -0.0391  -0.0169   0.0000  -0.0000   0.0000   0.0000
 365 C_l :2py    0.0000   0.0085   0.0487  -0.0000   0.0000   0.0000   0.0000
 366 C_l :2pz    0.3859   0.0000   0.0000  -0.0814   0.2709  -0.0098  -0.1167
 367 C_l :2px    0.0000   0.0219   0.0366  -0.0000  -0.0000  -0.0000  -0.0000
 368 C_l :2py   -0.0000   0.0755  -0.0773   0.0000   0.0000  -0.0000   0.0000
 369 C_l :2pz   -0.0645   0.0000   0.0000   0.0130  -0.0627   0.0130  -0.0005
 373 C_l :3d1+   0.0041   0.0000   0.0000   0.0114  -0.0120   0.0009   0.0037
 380 C_l :3d2-  -0.0000   0.0042  -0.0127   0.0000   0.0000   0.0000   0.0000
 381 C_l :3d1-  -0.2209  -0.0000  -0.0000  -0.0116  -0.1400   0.0149   0.1421
 383 C_l :3d1+  -0.2976  -0.0000  -0.0000  -0.0299  -0.1441   0.0116   0.1497
 388 C_m :1s    -0.0000  -0.0510   0.0331   0.0000  -0.0000   0.0000  -0.0000
 389 C_m :1s     0.0000   0.0335   0.0206   0.0000  -0.0000  -0.0000  -0.0000
 392 C_m :2pz   -0.0097   0.0000   0.0000  -0.0688   0.1572  -0.0147  -0.2441
 396 C_m :2px    0.0000   0.0140   0.0145  -0.0000   0.0000  -0.0000  -0.0000
 397 C_m :2py    0.0000  -0.0039   0.0161   0.0000  -0.0000  -0.0000  -0.0000
 398 C_m :2pz    0.2315   0.0000   0.0000  -0.0222   0.1856  -0.0256  -0.2128
 399 C_m :2px   -0.0000   0.0121  -0.1020   0.0000   0.0000   0.0000   0.0000
 400 C_m :2py   -0.0000  -0.0551  -0.0523   0.0000   0.0000   0.0000   0.0000
 401 C_m :2pz    0.0294   0.0000  -0.0000   0.0024   0.0197   0.0047  -0.0018
 412 C_m :3d2-   0.0000  -0.0167   0.0164   0.0000  -0.0000  -0.0000  -0.0000
 413 C_m :3d1-  -0.1287   0.0000   0.0000   0.0072  -0.0483   0.0086   0.0637
 415 C_m :3d1+  -0.2230   0.0000   0.0000   0.0176  -0.0843   0.0140   0.1099
 420 C_n :1s     0.0000   0.0164  -0.0016  -0.0000   0.0000  -0.0000  -0.0000
 421 C_n :1s     0.0000  -0.0217  -0.0250   0.0000  -0.0000  -0.0000  -0.0000
 424 C_n :2pz    0.0245  -0.0000   0.0000   0.0376  -0.0031  -0.0008  -0.0616
 427 C_n :2pz   -0.0067  -0.0000  -0.0000  -0.0123   0.0152  -0.0012  -0.0153
 428 C_n :2px   -0.0000  -0.0136   0.0148   0.0000   0.0000   0.0000   0.0000
 429 C_n :2py    0.0000   0.0237  -0.0116  -0.0000   0.0000   0.0000   0.0000
 430 C_n :2pz    0.3315  -0.0000  -0.0000   0.0119   0.1201  -0.0168  -0.1969
 431 C_n :2px    0.0000  -0.0154   0.0662  -0.0000  -0.0000  -0.0000  -0.0000
 432 C_n :2py    0.0000  -0.0321   0.0840  -0.0000  -0.0000  -0.0000  -0.0000
 433 C_n :2pz    0.0211  -0.0000  -0.0000  -0.0125   0.0217  -0.0049  -0.0164
 435 C_n :3d1-   0.0026   0.0000   0.0000   0.0067  -0.0092   0.0008   0.0108
 437 C_n :3d1+   0.0021  -0.0000   0.0000   0.0071  -0.0128   0.0012   0.0182
 442 C_n :3d1+  -0.0031   0.0000  -0.0000   0.0016  -0.0064   0.0006   0.0102
 444 C_n :3d2-   0.0000  -0.0014   0.0109  -0.0000   0.0000  -0.0000   0.0000
 445 C_n :3d1-  -0.0359  -0.0000  -0.0000  -0.0169  -0.0008  -0.0002   0.0082
 447 C_n :3d1+  -0.0930  -0.0000  -0.0000  -0.0098  -0.0233   0.0038   0.0326
 452 N_a :1s    -0.0000  -0.0044  -0.0232   0.0000  -0.0000  -0.0000   0.0000
 453 N_a :1s    -0.0000  -0.0046   0.0680  -0.0000   0.0000   0.0000   0.0000
 456 N_a :2pz    0.0633   0.0000   0.0000   0.1646  -0.2173   0.0186   0.2419
 459 N_a :2pz    0.0053  -0.0000  -0.0000   0.0139  -0.0196   0.0017   0.0242
 462 N_a :2pz    0.0529   0.0000   0.0000   0.0276  -0.0329   0.0022   0.0506
 463 N_a :2px   -0.0000   0.0095  -0.0356   0.0000  -0.0000   0.0000  -0.0000
 464 N_a :2py   -0.0000   0.0256  -0.0224   0.0000  -0.0000  -0.0000  -0.0000
 465 N_a :2pz   -0.0271   0.0000   0.0000   0.0104  -0.0209   0.0017   0.0195
 482 N_b :1s    -0.0000   0.0218  -0.0020   0.0000  -0.0000   0.0000  -0.0000
 483 N_b :1s    -0.0000   0.0611  -0.0187   0.0000  -0.0000  -0.0000  -0.0000
 484 N_b :1s     0.0000   0.2503  -0.0250  -0.0000  -0.0000  -0.0000  -0.0000
 485 N_b :1s    -0.0000   0.3665  -0.4122   0.0000  -0.0000  -0.0000  -0.0000
 486 N_b :2px    0.0000   0.0803  -0.1085  -0.0000  -0.0000  -0.0000  -0.0000
 487 N_b :2py    0.0000   0.2723  -0.0273  -0.0000   0.0000   0.0000   0.0000
 488 N_b :2pz    0.0298  -0.0000   0.0000  -0.0302  -0.0283  -0.0050  -0.0171
 489 N_b :2px   -0.0000   0.0333   0.0376   0.0000   0.0000   0.0000  -0.0000
 490 N_b :2py   -0.0000   0.0297  -0.0268  -0.0000  -0.0000  -0.0000  -0.0000
 492 N_b :2px   -0.0000   0.0171  -0.3463   0.0000   0.0000   0.0000   0.0000
 493 N_b :2py   -0.0000   0.0700  -0.0318   0.0000   0.0000  -0.0000   0.0000
 494 N_b :2pz    0.0898  -0.0000   0.0000  -0.0113  -0.0546  -0.0324  -0.0569
 495 N_b :2px   -0.0000  -0.0353  -0.0110   0.0000   0.0000   0.0000   0.0000
 496 N_b :2py    0.0000  -0.0686  -0.0759   0.0000  -0.0000   0.0000  -0.0000
 497 N_b :2pz    0.0254   0.0000   0.0000  -0.0920  -0.0470  -0.0166  -0.0531
 498 N_b :3d2-  -0.0000   0.0470   0.0229   0.0000   0.0000   0.0000   0.0000
 499 N_b :3d1-  -0.0054  -0.0000   0.0000   0.0066   0.0074  -0.0214   0.0113
 501 N_b :3d1+  -0.0028   0.0000  -0.0000   0.0038   0.0080   0.0528   0.0036
 502 N_b :3d2+   0.0000  -0.0401   0.0395  -0.0000   0.0000   0.0000   0.0000
 503 N_b :3d2-   0.0000   0.0068  -0.0225  -0.0000   0.0000   0.0000   0.0000
 507 N_b :3d2+  -0.0000  -0.0130  -0.0184   0.0000   0.0000  -0.0000   0.0000
 508 N_b :3d2-  -0.0000  -0.0341   0.0766  -0.0000  -0.0000  -0.0000   0.0000
 509 N_b :3d1-   0.0174   0.0000   0.0000  -0.0145  -0.0249  -0.0074  -0.0294
 510 N_b :3d0   -0.0000  -0.0343   0.0229   0.0000  -0.0000  -0.0000   0.0000
 511 N_b :3d1+   0.0406   0.0000  -0.0000  -0.0074  -0.0204   0.0375  -0.0097
 512 N_b :3d2+   0.0000   0.0657   0.0309  -0.0000  -0.0000  -0.0000  -0.0000
 515 O_a :1s     0.0000   0.0408   0.0107  -0.0000  -0.0000   0.0000  -0.0000
 516 O_a :1s    -0.0000  -0.1355  -0.1054   0.0000   0.0000   0.0000   0.0000
 517 O_a :1s    -0.0000  -0.1260   0.0961   0.0000   0.0000   0.0000   0.0000
 518 O_a :2px   -0.0000  -0.0980   0.2534   0.0000   0.0000   0.0000   0.0000
 519 O_a :2py    0.0000  -0.7119  -0.4982   0.0000   0.0000   0.0000  -0.0000
 520 O_a :2pz    0.0592   0.0000   0.0000  -0.0741  -0.1316  -0.6339  -0.0824
 521 O_a :2px    0.0000   0.0214   0.0107  -0.0000  -0.0000  -0.0000  -0.0000
 522 O_a :2py   -0.0000  -0.0399  -0.0316  -0.0000   0.0000   0.0000   0.0000
 523 O_a :2pz    0.0036  -0.0000  -0.0000  -0.0048  -0.0092  -0.0490  -0.0058
 524 O_a :2px   -0.0000   0.0168   0.0462   0.0000   0.0000   0.0000   0.0000
 525 O_a :2py    0.0000  -0.1318   0.0589  -0.0000  -0.0000   0.0000  -0.0000
 526 O_a :2pz    0.0250   0.0000   0.0000  -0.0061  -0.0167  -0.0194   0.0023
 527 O_a :2px    0.0000  -0.0130   0.0087  -0.0000  -0.0000  -0.0000   0.0000
 528 O_a :2py   -0.0000   0.0225   0.0063  -0.0000  -0.0000  -0.0000   0.0000
 529 O_a :2pz   -0.0158  -0.0000  -0.0000   0.0332   0.0230   0.0170   0.0230
 533 O_a :3d1+   0.0018  -0.0000  -0.0000  -0.0022  -0.0034  -0.0135  -0.0021
 535 O_a :3d2-   0.0000  -0.0211  -0.0181  -0.0000   0.0000   0.0000  -0.0000
 538 O_a :3d1+   0.0031   0.0000   0.0000  -0.0035  -0.0058  -0.0286  -0.0031
 539 O_a :3d2+  -0.0000   0.0055   0.0147   0.0000   0.0000   0.0000   0.0000
 540 O_a :3d2-   0.0000  -0.0134   0.0181  -0.0000  -0.0000   0.0000  -0.0000
 542 O_a :3d0   -0.0000  -0.0021  -0.0114   0.0000   0.0000   0.0000   0.0000
 544 O_a :3d2+   0.0000   0.0122   0.0082  -0.0000  -0.0000  -0.0000  -0.0000
 547 O_b :1s     0.0000   0.0320  -0.0257  -0.0000   0.0000   0.0000   0.0000
 548 O_b :1s    -0.0000  -0.1091   0.1946  -0.0000  -0.0000  -0.0000   0.0000
 549 O_b :1s     0.0000  -0.2250   0.2464  -0.0000  -0.0000  -0.0000   0.0000
 550 O_b :2px    0.0000  -0.1399   0.6382  -0.0000   0.0000   0.0000   0.0000
 551 O_b :2py    0.0000  -0.4451   0.4429  -0.0000  -0.0000   0.0000   0.0000
 552 O_b :2pz    0.0478   0.0000  -0.0000  -0.0539  -0.0286   0.6523  -0.1030
 553 O_b :2px   -0.0000  -0.0268   0.0484   0.0000  -0.0000  -0.0000  -0.0000
 554 O_b :2py   -0.0000  -0.0095   0.0260   0.0000   0.0000  -0.0000  -0.0000
 555 O_b :2pz    0.0010  -0.0000   0.0000  -0.0015   0.0001   0.0502  -0.0068
 556 O_b :2px    0.0000  -0.0600   0.0726  -0.0000   0.0000   0.0000   0.0000
 557 O_b :2py    0.0000  -0.0877   0.0108  -0.0000  -0.0000   0.0000  -0.0000
 558 O_b :2pz   -0.0260   0.0000  -0.0000   0.0008   0.0106   0.0501  -0.0094
 559 O_b :2px   -0.0000   0.0206   0.0202   0.0000   0.0000   0.0000  -0.0000
 560 O_b :2py    0.0000  -0.0115   0.0604  -0.0000   0.0000  -0.0000   0.0000
 561 O_b :2pz    0.0008  -0.0000  -0.0000   0.0294   0.0096  -0.0049   0.0109
 563 O_b :3d1-   0.0009  -0.0000   0.0000  -0.0010  -0.0004   0.0109  -0.0014
 566 O_b :3d2+   0.0000   0.0040  -0.0119  -0.0000  -0.0000   0.0000  -0.0000
 567 O_b :3d2-   0.0000   0.0025   0.0143   0.0000   0.0000   0.0000  -0.0000
 568 O_b :3d1-   0.0026   0.0000  -0.0000  -0.0020  -0.0014   0.0243  -0.0041
[...]

       No.  Residual tot.,    conf., and orb.    Bnorm      Frequency 
      ----------------------------------------------------------------
         1    7.33574D-02  0.00D+00  7.34D-02  3.61D+01    0.00000D+00
         2    7.63343D-02  0.00D+00  7.63D-02  3.74D+01    1.90000D-02
         3    8.66144D-02  0.00D+00  8.66D-02  4.20D+01    3.80000D-02

 ** RSPCTL MICROITERATION NUMBER    7

       No.  Residual tot.,    conf., and orb.    Bnorm      Frequency 
      ----------------------------------------------------------------
         1    2.45070D-02  0.00D+00  2.45D-02  3.61D+01    0.00000D+00
         2    2.56032D-02  0.00D+00  2.56D-02  3.74D+01    1.90000D-02
         3    2.94215D-02  0.00D+00  2.94D-02  4.20D+01    3.80000D-02

 *** THE REQUESTED    3 SOLUTION VECTORS CONVERGED

 Convergence of RSP solution vectors, threshold = 1.00D-03
 ---------------------------------------------------------------
 (dimension of paired reduced space:   42)
 RSP solution vector no.    1; norm of residual   6.80D-04
 RSP solution vector no.    2; norm of residual   6.84D-04
 RSP solution vector no.    3; norm of residual   7.01D-04

 *** RSPCTL MICROITERATIONS CONVERGED

@ QRLRVE: SINGLET SOLUTION FOR SYMMETRY    1  ( A  )    LABEL   YDIPLEN     FREQUENCY   0.000000D+00

@ QRLRVE:  << XDIPLEN  ; YDIPLEN  >> (   0.00000):     381.068811014    

@ QRLRVE:  << YDIPLEN  ; YDIPLEN  >> (   0.00000):     413.936118401    

@ QRLRVE:  << ZDIPLEN  ; YDIPLEN  >> (   0.00000):    1.685154147149E-15

@ QRLRVE: SINGLET SOLUTION FOR SYMMETRY    1  ( A  )    LABEL   YDIPLEN     FREQUENCY   0.190000D-01

@ QRLRVE:  << XDIPLEN  ; YDIPLEN  >> (   0.01900):     391.878958169    

@ QRLRVE:  << YDIPLEN  ; YDIPLEN  >> (   0.01900):     421.303169684    

@ QRLRVE:  << ZDIPLEN  ; YDIPLEN  >> (   0.01900):    1.801314115362E-15

@ QRLRVE: SINGLET SOLUTION FOR SYMMETRY    1  ( A  )    LABEL   YDIPLEN     FREQUENCY   0.380000D-01

@ QRLRVE:  << XDIPLEN  ; YDIPLEN  >> (   0.03800):     428.344112653    

@ QRLRVE:  << YDIPLEN  ; YDIPLEN  >> (   0.03800):     446.083493490    

@ QRLRVE:  << ZDIPLEN  ; YDIPLEN  >> (   0.03800):    2.227121640759E-15


 QRLRVE -- linear response calculation for symmetry  1  ( A  )
 QRLRVE -- operator label : ZDIPLEN 
 QRLRVE -- operator spin  :   0
 QRLRVE -- frequencies :  0.000000  0.019000  0.038000



 ---  SOLVING SETS OF LINEAR EQUATIONS FOR LINEAR RESPONSE PROPERTIES ---

 Operator symmetry = 1  ( A  ); triplet =   F


 ** RSPCTL MICROITERATION NUMBER    1

       No.  Residual tot.,    conf., and orb.    Bnorm      Frequency 
      ----------------------------------------------------------------
         1    3.32330D+00  0.00D+00  3.32D+00  8.63D+00    0.00000D+00
         2    3.32624D+00  0.00D+00  3.33D+00  8.65D+00    1.90000D-02
         3    3.33515D+00  0.00D+00  3.34D+00  8.73D+00    3.80000D-02

 ** RSPCTL MICROITERATION NUMBER    2

       No.  Residual tot.,    conf., and orb.    Bnorm      Frequency 
      ----------------------------------------------------------------
         1    7.38729D-01  0.00D+00  7.39D-01  9.03D+00    0.00000D+00
         2    7.40786D-01  0.00D+00  7.41D-01  9.06D+00    1.90000D-02
         3    7.47029D-01  0.00D+00  7.47D-01  9.15D+00    3.80000D-02

 ** RSPCTL MICROITERATION NUMBER    3

       No.  Residual tot.,    conf., and orb.    Bnorm      Frequency 
      ----------------------------------------------------------------
         1    1.52716D-01  0.00D+00  1.53D-01  9.06D+00    0.00000D+00
         2    1.53690D-01  0.00D+00  1.54D-01  9.09D+00    1.90000D-02
         3    1.56665D-01  0.00D+00  1.57D-01  9.18D+00    3.80000D-02

 ** RSPCTL MICROITERATION NUMBER    4

       No.  Residual tot.,    conf., and orb.    Bnorm      Frequency 
      ----------------------------------------------------------------
         1    4.55728D-02  0.00D+00  4.56D-02  9.07D+00    0.00000D+00
         2    4.63375D-02  0.00D+00  4.63D-02  9.10D+00    1.90000D-02
         3    4.87289D-02  0.00D+00  4.87D-02  9.18D+00    3.80000D-02

 ** RSPCTL MICROITERATION NUMBER    5

       No.  Residual tot.,    conf., and orb.    Bnorm      Frequency 
      ----------------------------------------------------------------
         1    1.68942D-02  0.00D+00  1.69D-02  9.07D+00    0.00000D+00
         2    1.73737D-02  0.00D+00  1.74D-02  9.10D+00    1.90000D-02
         3    1.88891D-02  0.00D+00  1.89D-02  9.19D+00    3.80000D-02

 ** RSPCTL MICROITERATION NUMBER    6

       No.  Residual tot.,    conf., and orb.    Bnorm      Frequency 
      ----------------------------------------------------------------
         1    5.73384D-03  0.00D+00  5.73D-03  9.07D+00    0.00000D+00
         2    5.96719D-03  0.00D+00  5.97D-03  9.10D+00    1.90000D-02
         3    6.71420D-03  0.00D+00  6.71D-03  9.19D+00    3.80000D-02

 *** THE REQUESTED    3 SOLUTION VECTORS CONVERGED

 Convergence of RSP solution vectors, threshold = 1.00D-03
 ---------------------------------------------------------------
 (dimension of paired reduced space:   36)
 RSP solution vector no.    1; norm of residual   6.32D-04
 RSP solution vector no.    2; norm of residual   6.56D-04
 RSP solution vector no.    3; norm of residual   7.31D-04

 *** RSPCTL MICROITERATIONS CONVERGED

@ QRLRVE: SINGLET SOLUTION FOR SYMMETRY    1  ( A  )    LABEL   ZDIPLEN     FREQUENCY   0.000000D+00

@ QRLRVE:  << XDIPLEN  ; ZDIPLEN  >> (   0.00000):   -1.016727077502E-14

@ QRLRVE:  << YDIPLEN  ; ZDIPLEN  >> (   0.00000):    2.908392168453E-15

@ QRLRVE:  << ZDIPLEN  ; ZDIPLEN  >> (   0.00000):     118.564627659    

@ QRLRVE: SINGLET SOLUTION FOR SYMMETRY    1  ( A  )    LABEL   ZDIPLEN     FREQUENCY   0.190000D-01

@ QRLRVE:  << XDIPLEN  ; ZDIPLEN  >> (   0.01900):   -1.066636167891E-14

@ QRLRVE:  << YDIPLEN  ; ZDIPLEN  >> (   0.01900):    3.151844660558E-15

@ QRLRVE:  << ZDIPLEN  ; ZDIPLEN  >> (   0.01900):     118.714819461    

@ QRLRVE: SINGLET SOLUTION FOR SYMMETRY    1  ( A  )    LABEL   ZDIPLEN     FREQUENCY   0.380000D-01

@ QRLRVE:  << XDIPLEN  ; ZDIPLEN  >> (   0.03800):   -1.227902727912E-14

@ QRLRVE:  << YDIPLEN  ; ZDIPLEN  >> (   0.03800):    3.951541568299E-15

@ QRLRVE:  << ZDIPLEN  ; ZDIPLEN  >> (   0.03800):     119.169623238    
 
 ======================================================================
 ---  L I N E A R   R E S P O N S E   F U N C T I O N S --- 
 ======================================================================

 The -<<A;B>>(omega_b) functions from vectors generated
 in a *QUADRA calculation of <<A;B,C>>(omega_b,omega_c)

 Note: the accuracy of off-diagonal elements will be linear
 in the convergence threshold THCLR =  1.00D-03


 Perturbation symmetry.     KSYMOP:           1
 Perturbation spin symmetry.TRPLET:           F
 Orbital variables.         KZWOPT:       43745
 Configuration variables.   KZCONF:           0
 Total number of variables. KZVAR :       43745

@ Singlet linear response function in a.u.

@ A operator, symmetry, frequency:   XDIPLEN    1 -0.000000
@ B operator, symmetry, frequency:   XDIPLEN    1  0.000000

@ Value of linear response -<<A;B>>(omega):     748.281807077425

@ Singlet linear response function in a.u.

@ A operator, symmetry, frequency:   YDIPLEN    1 -0.000000
@ B operator, symmetry, frequency:   XDIPLEN    1  0.000000

@ Value of linear response -<<A;B>>(omega):     381.060153903325

@ Singlet linear response function in a.u.

@ A operator, symmetry, frequency:   ZDIPLEN    1 -0.000000
@ B operator, symmetry, frequency:   XDIPLEN    1  0.000000

@ Value of linear response -<<A;B>>(omega):      -0.000000000000

@ Singlet linear response function in a.u.

@ A operator, symmetry, frequency:   XDIPLEN    1 -0.019000
@ B operator, symmetry, frequency:   XDIPLEN    1  0.019000

@ Value of linear response -<<A;B>>(omega):     764.961076008141

@ Singlet linear response function in a.u.

@ A operator, symmetry, frequency:   YDIPLEN    1 -0.019000
@ B operator, symmetry, frequency:   XDIPLEN    1  0.019000

@ Value of linear response -<<A;B>>(omega):     391.869745330016

@ Singlet linear response function in a.u.

@ A operator, symmetry, frequency:   ZDIPLEN    1 -0.019000
@ B operator, symmetry, frequency:   XDIPLEN    1  0.019000

@ Value of linear response -<<A;B>>(omega):      -0.000000000000

@ Singlet linear response function in a.u.

@ A operator, symmetry, frequency:   XDIPLEN    1 -0.000000
@ B operator, symmetry, frequency:   YDIPLEN    1  0.000000

@ Value of linear response -<<A;B>>(omega):     381.068811014217

@ Singlet linear response function in a.u.

@ A operator, symmetry, frequency:   YDIPLEN    1 -0.000000
@ B operator, symmetry, frequency:   YDIPLEN    1  0.000000

@ Value of linear response -<<A;B>>(omega):     413.936118400748

@ Singlet linear response function in a.u.

@ A operator, symmetry, frequency:   ZDIPLEN    1 -0.000000
@ B operator, symmetry, frequency:   YDIPLEN    1  0.000000

@ Value of linear response -<<A;B>>(omega):       0.000000000000

@ Singlet linear response function in a.u.

@ A operator, symmetry, frequency:   XDIPLEN    1 -0.019000
@ B operator, symmetry, frequency:   YDIPLEN    1  0.019000

@ Value of linear response -<<A;B>>(omega):     391.878958168737

@ Singlet linear response function in a.u.

@ A operator, symmetry, frequency:   YDIPLEN    1 -0.019000
@ B operator, symmetry, frequency:   YDIPLEN    1  0.019000

@ Value of linear response -<<A;B>>(omega):     421.303169683781

@ Singlet linear response function in a.u.

@ A operator, symmetry, frequency:   ZDIPLEN    1 -0.019000
@ B operator, symmetry, frequency:   YDIPLEN    1  0.019000

@ Value of linear response -<<A;B>>(omega):       0.000000000000

@ Singlet linear response function in a.u.

@ A operator, symmetry, frequency:   XDIPLEN    1 -0.000000
@ B operator, symmetry, frequency:   ZDIPLEN    1  0.000000

@ Value of linear response -<<A;B>>(omega):      -0.000000000000

@ Singlet linear response function in a.u.

@ A operator, symmetry, frequency:   YDIPLEN    1 -0.000000
@ B operator, symmetry, frequency:   ZDIPLEN    1  0.000000

@ Value of linear response -<<A;B>>(omega):       0.000000000000

@ Singlet linear response function in a.u.

@ A operator, symmetry, frequency:   ZDIPLEN    1 -0.000000
@ B operator, symmetry, frequency:   ZDIPLEN    1  0.000000

@ Value of linear response -<<A;B>>(omega):     118.564627659353

@ Singlet linear response function in a.u.

@ A operator, symmetry, frequency:   XDIPLEN    1 -0.019000
@ B operator, symmetry, frequency:   ZDIPLEN    1  0.019000

@ Value of linear response -<<A;B>>(omega):      -0.000000000000

@ Singlet linear response function in a.u.

@ A operator, symmetry, frequency:   YDIPLEN    1 -0.019000
@ B operator, symmetry, frequency:   ZDIPLEN    1  0.019000

@ Value of linear response -<<A;B>>(omega):       0.000000000000

@ Singlet linear response function in a.u.

@ A operator, symmetry, frequency:   ZDIPLEN    1 -0.019000
@ B operator, symmetry, frequency:   ZDIPLEN    1  0.019000

@ Value of linear response -<<A;B>>(omega):     118.714819461460


  Results from quadratic response calculation
 --------------------------------------------

@ B-freq = 0.000000  C-freq = 0.000000     beta(X;X,X) =  12624.15534704
@ B-freq = 0.000000  C-freq = 0.000000     beta(Y;X,X) =  12631.73032841
@ B-freq = 0.000000  C-freq = 0.000000     beta(Z;X,X) =     -0.00000000
@ B-freq = 0.019000  C-freq = 0.000000     beta(X;X,X) =  13513.60161896
@ B-freq = 0.019000  C-freq = 0.000000     beta(Y;X,X) =  13363.49473992
@ B-freq = 0.019000  C-freq = 0.000000     beta(Z;X,X) =     -0.00000000
@ B-freq = 0.000000  C-freq = 0.000000     beta(X;Y,X) = beta(Y,X,X)
@ B-freq = 0.000000  C-freq = 0.000000     beta(X;Y,X) =  12631.72898740
@ B-freq = 0.000000  C-freq = 0.000000     beta(Y;Y,X) =  11622.14915813
@ B-freq = 0.000000  C-freq = 0.000000     beta(Z;Y,X) =     -0.00000000
@ B-freq = 0.019000  C-freq = 0.000000     beta(X;Y,X) =  13363.49332793
@ B-freq = 0.019000  C-freq = 0.000000     beta(Y;Y,X) =  12207.01022317
@ B-freq = 0.019000  C-freq = 0.000000     beta(Z;Y,X) =     -0.00000000
@ B-freq = 0.000000  C-freq = 0.000000     beta(X;Z,X) = beta(Z,X,X)
@ B-freq = 0.000000  C-freq = 0.000000     beta(Y;Z,X) = beta(Z,Y,X)
@ B-freq = 0.000000  C-freq = 0.000000     beta(X;Z,X) =     -0.00000000
@ B-freq = 0.000000  C-freq = 0.000000     beta(Y;Z,X) =     -0.00000000
@ B-freq = 0.000000  C-freq = 0.000000     beta(Z;Z,X) =    -35.10076907
@ B-freq = 0.019000  C-freq = 0.000000     beta(X;Z,X) =     -0.00000000
@ B-freq = 0.019000  C-freq = 0.000000     beta(Y;Z,X) =     -0.00000000
@ B-freq = 0.019000  C-freq = 0.000000     beta(Z;Z,X) =    -35.74503021
@ B-freq = 0.000000  C-freq = 0.019000     beta(X;X,X) = beta(X,X,X)
@ B-freq = 0.000000  C-freq = 0.019000     beta(Y;X,X) = beta(Y,X,X)
@ B-freq = 0.000000  C-freq = 0.019000     beta(Z;X,X) = beta(Z,X,X)
@ B-freq = 0.019000  C-freq = 0.019000     beta(X;X,X) =  15562.94426690
@ B-freq = 0.019000  C-freq = 0.019000     beta(Y;X,X) =  14896.68818015
@ B-freq = 0.019000  C-freq = 0.019000     beta(Z;X,X) =     -0.00000000
@ B-freq = 0.000000  C-freq = 0.019000     beta(X;Y,X) =  13483.65009702
@ B-freq = 0.000000  C-freq = 0.019000     beta(Y;Y,X) =  12296.45044956
@ B-freq = 0.000000  C-freq = 0.019000     beta(Z;Y,X) =     -0.00000000
@ B-freq = 0.019000  C-freq = 0.019000     beta(X;Y,X) =  15307.00455827
@ B-freq = 0.019000  C-freq = 0.019000     beta(Y;Y,X) =  13632.72605701
@ B-freq = 0.019000  C-freq = 0.019000     beta(Z;Y,X) =     -0.00000000
@ B-freq = 0.000000  C-freq = 0.019000     beta(X;Z,X) =     -0.00000000
@ B-freq = 0.000000  C-freq = 0.019000     beta(Y;Z,X) =     -0.00000000
@ B-freq = 0.000000  C-freq = 0.019000     beta(Z;Z,X) =    -35.91881083
@ B-freq = 0.019000  C-freq = 0.019000     beta(X;Z,X) =     -0.00000000
@ B-freq = 0.019000  C-freq = 0.019000     beta(Y;Z,X) =     -0.00000000
@ B-freq = 0.019000  C-freq = 0.019000     beta(Z;Z,X) =    -37.27551395
@ B-freq = 0.000000  C-freq = 0.000000     beta(X;X,Y) = beta(Y,X,X)
@ B-freq = 0.000000  C-freq = 0.000000     beta(Y;X,Y) = beta(Y,Y,X)
@ B-freq = 0.000000  C-freq = 0.000000     beta(Z;X,Y) = beta(Z,Y,X)
@ B-freq = 0.019000  C-freq = 0.000000     beta(X;X,Y) = beta(X,Y,X)
@ B-freq = 0.019000  C-freq = 0.000000     beta(Y;X,Y) = beta(Y,Y,X)
@ B-freq = 0.019000  C-freq = 0.000000     beta(Z;X,Y) = beta(Z,Y,X)
@ B-freq = 0.000000  C-freq = 0.000000     beta(X;Y,Y) = beta(Y,Y,X)
@ B-freq = 0.000000  C-freq = 0.000000     beta(X;Y,Y) =  11622.14829605
@ B-freq = 0.000000  C-freq = 0.000000     beta(Y;Y,Y) =  10100.19577910
@ B-freq = 0.000000  C-freq = 0.000000     beta(Z;Y,Y) =     -0.00000000
@ B-freq = 0.019000  C-freq = 0.000000     beta(X;Y,Y) =  12296.44954212
@ B-freq = 0.019000  C-freq = 0.000000     beta(Y;Y,Y) =  10623.96221962
@ B-freq = 0.019000  C-freq = 0.000000     beta(Z;Y,Y) =     -0.00000000
@ B-freq = 0.000000  C-freq = 0.000000     beta(X;Z,Y) = beta(Z,Y,X)
@ B-freq = 0.000000  C-freq = 0.000000     beta(Y;Z,Y) = beta(Z,Y,Y)
@ B-freq = 0.000000  C-freq = 0.000000     beta(X;Z,Y) =     -0.00000000
@ B-freq = 0.000000  C-freq = 0.000000     beta(Y;Z,Y) =     -0.00000000
@ B-freq = 0.000000  C-freq = 0.000000     beta(Z;Z,Y) =    -31.12686949
@ B-freq = 0.019000  C-freq = 0.000000     beta(X;Z,Y) =     -0.00000000
@ B-freq = 0.019000  C-freq = 0.000000     beta(Y;Z,Y) =     -0.00000000
@ B-freq = 0.019000  C-freq = 0.000000     beta(Z;Z,Y) =    -31.59708499
@ B-freq = 0.000000  C-freq = 0.019000     beta(X;X,Y) = beta(X,Y,X)
@ B-freq = 0.000000  C-freq = 0.019000     beta(Y;X,Y) = beta(Y,Y,X)
@ B-freq = 0.000000  C-freq = 0.019000     beta(Z;X,Y) = beta(Z,Y,X)
@ B-freq = 0.019000  C-freq = 0.019000     beta(X;X,Y) = beta(X,Y,X)
@ B-freq = 0.019000  C-freq = 0.019000     beta(Y;X,Y) = beta(Y,Y,X)
@ B-freq = 0.019000  C-freq = 0.019000     beta(Z;X,Y) = beta(Z,Y,X)
@ B-freq = 0.000000  C-freq = 0.019000     beta(X;Y,Y) = beta(X,Y,Y)
@ B-freq = 0.000000  C-freq = 0.019000     beta(Y;Y,Y) = beta(Y,Y,Y)
@ B-freq = 0.000000  C-freq = 0.019000     beta(Z;Y,Y) = beta(Z,Y,Y)
@ B-freq = 0.019000  C-freq = 0.019000     beta(X;Y,Y) =  13938.62320017
@ B-freq = 0.019000  C-freq = 0.019000     beta(Y;Y,Y) =  11812.42462245
@ B-freq = 0.019000  C-freq = 0.019000     beta(Z;Y,Y) =     -0.00000000
@ B-freq = 0.000000  C-freq = 0.019000     beta(X;Z,Y) =     -0.00000000
@ B-freq = 0.000000  C-freq = 0.019000     beta(Y;Z,Y) =     -0.00000000
@ B-freq = 0.000000  C-freq = 0.019000     beta(Z;Z,Y) =    -31.68956803
@ B-freq = 0.019000  C-freq = 0.019000     beta(X;Z,Y) =     -0.00000000
@ B-freq = 0.019000  C-freq = 0.019000     beta(Y;Z,Y) =     -0.00000000
@ B-freq = 0.019000  C-freq = 0.019000     beta(Z;Z,Y) =    -32.67618032
@ B-freq = 0.000000  C-freq = 0.000000     beta(X;X,Z) = beta(Z,X,X)
@ B-freq = 0.000000  C-freq = 0.000000     beta(Y;X,Z) = beta(Z,Y,X)
@ B-freq = 0.000000  C-freq = 0.000000     beta(Z;X,Z) = beta(Z,Z,X)
@ B-freq = 0.019000  C-freq = 0.000000     beta(X;X,Z) = beta(X,Z,X)
@ B-freq = 0.019000  C-freq = 0.000000     beta(Y;X,Z) = beta(Y,Z,X)
@ B-freq = 0.019000  C-freq = 0.000000     beta(Z;X,Z) = beta(Z,Z,X)
@ B-freq = 0.000000  C-freq = 0.000000     beta(X;Y,Z) = beta(Z,Y,X)
@ B-freq = 0.000000  C-freq = 0.000000     beta(Y;Y,Z) = beta(Z,Y,Y)
@ B-freq = 0.000000  C-freq = 0.000000     beta(Z;Y,Z) = beta(Z,Z,Y)
@ B-freq = 0.019000  C-freq = 0.000000     beta(X;Y,Z) = beta(X,Z,Y)
@ B-freq = 0.019000  C-freq = 0.000000     beta(Y;Y,Z) = beta(Y,Z,Y)
@ B-freq = 0.019000  C-freq = 0.000000     beta(Z;Y,Z) = beta(Z,Z,Y)
@ B-freq = 0.000000  C-freq = 0.000000     beta(X;Z,Z) = beta(Z,Z,X)
@ B-freq = 0.000000  C-freq = 0.000000     beta(Y;Z,Z) = beta(Z,Z,Y)
@ B-freq = 0.000000  C-freq = 0.000000     beta(X;Z,Z) =    -35.10074913
@ B-freq = 0.000000  C-freq = 0.000000     beta(Y;Z,Z) =    -31.12685506
@ B-freq = 0.000000  C-freq = 0.000000     beta(Z;Z,Z) =     -0.00000000
@ B-freq = 0.019000  C-freq = 0.000000     beta(X;Z,Z) =    -35.91878992
@ B-freq = 0.019000  C-freq = 0.000000     beta(Y;Z,Z) =    -31.68955295
@ B-freq = 0.019000  C-freq = 0.000000     beta(Z;Z,Z) =     -0.00000000
@ B-freq = 0.000000  C-freq = 0.019000     beta(X;X,Z) = beta(X,Z,X)
@ B-freq = 0.000000  C-freq = 0.019000     beta(Y;X,Z) = beta(Y,Z,X)
@ B-freq = 0.000000  C-freq = 0.019000     beta(Z;X,Z) = beta(Z,Z,X)
@ B-freq = 0.019000  C-freq = 0.019000     beta(X;X,Z) = beta(X,Z,X)
@ B-freq = 0.019000  C-freq = 0.019000     beta(Y;X,Z) = beta(Y,Z,X)
@ B-freq = 0.019000  C-freq = 0.019000     beta(Z;X,Z) = beta(Z,Z,X)
@ B-freq = 0.000000  C-freq = 0.019000     beta(X;Y,Z) = beta(X,Z,Y)
@ B-freq = 0.000000  C-freq = 0.019000     beta(Y;Y,Z) = beta(Y,Z,Y)
@ B-freq = 0.000000  C-freq = 0.019000     beta(Z;Y,Z) = beta(Z,Z,Y)
@ B-freq = 0.019000  C-freq = 0.019000     beta(X;Y,Z) = beta(X,Z,Y)
@ B-freq = 0.019000  C-freq = 0.019000     beta(Y;Y,Z) = beta(Y,Z,Y)
@ B-freq = 0.019000  C-freq = 0.019000     beta(Z;Y,Z) = beta(Z,Z,Y)
@ B-freq = 0.000000  C-freq = 0.019000     beta(X;Z,Z) = beta(X,Z,Z)
@ B-freq = 0.000000  C-freq = 0.019000     beta(Y;Z,Z) = beta(Y,Z,Z)
@ B-freq = 0.000000  C-freq = 0.019000     beta(Z;Z,Z) = beta(Z,Z,Z)
@ B-freq = 0.019000  C-freq = 0.019000     beta(X;Z,Z) =    -37.90362509
@ B-freq = 0.019000  C-freq = 0.019000     beta(Y;Z,Z) =    -33.02074204
@ B-freq = 0.019000  C-freq = 0.019000     beta(Z;Z,Z) =     -0.00000000

  Total CPU  time used in RESPONSE:  7 minutes 59 seconds
  Total wall time used in RESPONSE:  8 minutes  2 seconds


                   .-------------------------------------------.
                   | End of Dynamic Property Section (RESPONS) |
                   `-------------------------------------------'

  Total CPU  time used in DALTON: 10 minutes 45 seconds
  Total wall time used in DALTON: 10 minutes 49 seconds

 
     Date and time (Linux)  : Wed May 28 01:07:20 2025
     Host name              : xm023                                   
