

     ************************************************************************
     *************** Dalton - An Electronic Structure Program ***************
     ************************************************************************

    This is output from DALTON release Dalton2020.0 (2020)
         ( Web site: http://daltonprogram.org )

   ----------------------------------------------------------------------------

    NOTE:
     
    Dalton is an experimental code for the evaluation of molecular
    properties using (MC)SCF, DFT, CI, and CC wave functions.
    The authors accept no responsibility for the performance of
    the code or for the correctness of the results.
     
    The code (in whole or part) is provided under a licence and
    is not to be reproduced for further distribution without
    the written permission of the authors or their representatives.
     
    See the home page "http://daltonprogram.org" for further information.
     
    If results obtained with this code are published,
    the appropriate citations would be both of:
     
       K. Aidas, C. Angeli, K. L. Bak, V. Bakken, R. Bast,
       L. Boman, O. Christiansen, R. Cimiraglia, S. Coriani,
       P. Dahle, E. K. Dalskov, U. Ekstroem,
       T. Enevoldsen, J. J. Eriksen, P. Ettenhuber, B. Fernandez,
       L. Ferrighi, H. Fliegl, L. Frediani, K. Hald, A. Halkier,
       C. Haettig, H. Heiberg, T. Helgaker, A. C. Hennum,
       H. Hettema, E. Hjertenaes, S. Hoest, I.-M. Hoeyvik,
       M. F. Iozzi, B. Jansik, H. J. Aa. Jensen, D. Jonsson,
       P. Joergensen, J. Kauczor, S. Kirpekar,
       T. Kjaergaard, W. Klopper, S. Knecht, R. Kobayashi, H. Koch,
       J. Kongsted, A. Krapp, K. Kristensen, A. Ligabue,
       O. B. Lutnaes, J. I. Melo, K. V. Mikkelsen, R. H. Myhre,
       C. Neiss, C. B. Nielsen, P. Norman, J. Olsen,
       J. M. H. Olsen, A. Osted, M. J. Packer, F. Pawlowski,
       T. B. Pedersen, P. F. Provasi, S. Reine, Z. Rinkevicius,
       T. A. Ruden, K. Ruud, V. Rybkin, P. Salek, C. C. M. Samson,
       A. Sanchez de Meras, T. Saue, S. P. A. Sauer,
       B. Schimmelpfennig, K. Sneskov, A. H. Steindal,
       K. O. Sylvester-Hvid, P. R. Taylor, A. M. Teale,
       E. I. Tellgren, D. P. Tew, A. J. Thorvaldsen, L. Thoegersen,
       O. Vahtras, M. A. Watson, D. J. D. Wilson, M. Ziolkowski
       and H. Agren,
       "The Dalton quantum chemistry program system",
       WIREs Comput. Mol. Sci. 2014, 4:269–284 (doi: 10.1002/wcms.1172)
     
    and
     
       Dalton, a molecular electronic structure program,
       Release Dalton2020.0 (2020), see http://daltonprogram.org
   ----------------------------------------------------------------------------

    Authors in alphabetical order (Major contribution(s) in parenthesis):

  Kestutis Aidas,           Vilnius University,           Lithuania   (QM/MM)
  Celestino Angeli,         University of Ferrara,        Italy       (NEVPT2)
  Keld L. Bak,              UNI-C,                        Denmark     (AOSOPPA, non-adiabatic coupling, magnetic properties)
  Vebjoern Bakken,          University of Oslo,           Norway      (DALTON; geometry optimizer, symmetry detection)
  Radovan Bast,             UiT The Arctic U. of Norway,  Norway      (DALTON installation and execution frameworks)
  Pablo Baudin,             University of Valencia,       Spain       (Cholesky excitation energies)
  Linus Boman,              NTNU,                         Norway      (Cholesky decomposition and subsystems)
  Bruno N. Cabral Tenorio,  Technical Univ. of Denmark,   Denmark     (Lanczos-based CC methods)
  Ove Christiansen,         Aarhus University,            Denmark     (CC module)
  Renzo Cimiraglia,         University of Ferrara,        Italy       (NEVPT2)
  Sonia Coriani,            Technical Univ. of Denmark,   Denmark     (CC and RESPONS modules)
  Janusz Cukras,            University of Warsaw,         Poland      (MChD in RESPONS)
  Paal Dahle,               University of Oslo,           Norway      (Parallelization)
  Erik K. Dalskov,          UNI-C,                        Denmark     (SOPPA)
  Thomas Enevoldsen,        Univ. of Southern Denmark,    Denmark     (SOPPA)
  Janus J. Eriksen,         Aarhus University,            Denmark     (Polarizable embedding, TDA)
  Rasmus Faber,             Technical Univ. of Denmark,   Denmark     (Vib.avg. NMR w. SOPPA, parallel AO-SOPPA, CVS-CC and EOMCC)
  Tobias Fahleson,          KTH Stockholm,                Sweden      (Damped cubic response)
  Berta Fernandez,          U. of Santiago de Compostela, Spain       (Doublet spin, ESR in RESPONS)
  Lara Ferrighi,            Aarhus University,            Denmark     (PCM Cubic response)
  Heike Fliegl,             University of Oslo,           Norway      (CCSD(R12))
  Luca Frediani,            UiT The Arctic U. of Norway,  Norway      (PCM)
  Emmanuel Fromager,        Univ. Strasbourg,             France      (MC-srDFT)
  Bin Gao,                  UiT The Arctic U. of Norway,  Norway      (Gen1Int library)
  Andre S. P. Gomes,        CNRS/Universite de Lille,     France      (Frozen density embedding)
  Christof Haettig,         Ruhr-University Bochum,       Germany     (CC module)
  Kasper Hald,              Aarhus University,            Denmark     (CC module)
  Asger Halkier,            Aarhus University,            Denmark     (CC module)
  Frederik Beyer Hansen,    University of Copenhagen,     Denmark     (Parallel AO-SOPPA)
  Erik D. Hedegaard,        Univ. of Southern Denmark,    Denmark     (Polarizable embedding, QM/MM, and MC-srDFT)
  Hanne Heiberg,            University of Oslo,           Norway      (Geometry analysis, selected one-electron integrals)
  Trygve Helgaker,          University of Oslo,           Norway      (DALTON; ABACUS, ERI, DFT modules, London, and much more)
  Alf Christian Hennum,     University of Oslo,           Norway      (Parity violation)
  Hinne Hettema,            University of Auckland,       New Zealand (Quadratic response in RESPONS; SIRIUS supersymmetry)
  Eirik Hjertenaes,         NTNU,                         Norway      (Cholesky decomposition)
  Pi A. B. Haase,           University of Copenhagen,     Denmark     (Triplet AO-SOPPA)
  Maria Francesca Iozzi,    University of Oslo,           Norway      (RPA)
  Christoph Jacob           TU Braunschweig               Germany     (Frozen density embedding)
  Brano Jansik              Technical Univ. of Ostrava    Czech Rep.  (DFT cubic response)
  Hans Joergen Aa. Jensen,  Univ. of Southern Denmark,    Denmark     (DALTON; SIRIUS, RESPONS, ABACUS, MC-srDFT, and much more)
  Dan Jonsson,              UiT The Arctic U. of Norway,  Norway      (Cubic response in RESPONS module)
  Poul Joergensen,          Aarhus University,            Denmark     (RESPONS, ABACUS, and CC modules)
  Maciej Kaminski,          University of Warsaw,         Poland      (CPPh in RESPONS)
  Joanna Kauczor,           Linkoeping University,        Sweden      (Complex polarization propagator (CPP) module)
  Sheela Kirpekar,          Univ. of Southern Denmark,    Denmark     (Mass-velocity & Darwin integrals)
  Erik Kjellgren,           Univ. of Southern Denmark,    Denmark     (MC-srDFT)
  Wim Klopper,              KIT Karlsruhe,                Germany     (R12 code in CC, SIRIUS, and ABACUS modules)
  Stefan Knecht,            ETH Zurich,                   Switzerland (Parallel CI and MCSCF, MC-srDFT)
  Rika Kobayashi,           Australian National Univ.,    Australia   (DIIS in CC, London in MCSCF)
  Henrik Koch,              NTNU,                         Norway      (CC module, Cholesky decomposition)
  Jacob Kongsted,           Univ. of Southern Denmark,    Denmark     (Polarizable embedding, polarizable density embedding, QM/MM)
  Andrea Ligabue,           University of Modena,         Italy       (CTOCD, AOSOPPA)
  Nanna H. List             Univ. of Southern Denmark,    Denmark     (Polarizable embedding)
  Ola B. Lutnaes,           University of Oslo,           Norway      (DFT Hessian)
  Juan I. Melo,             University of Buenos Aires,   Argentina   (LRESC, Relativistic Effects on NMR Shieldings)
  Kurt V. Mikkelsen,        University of Copenhagen,     Denmark     (MC-SCRF and QM/MM)
  Rolf H. Myhre,            NTNU,                         Norway      (Subsystems and CC3)
  Christian Neiss,          Univ. Erlangen-Nuernberg,     Germany     (CCSD(R12))
  Christian B. Nielsen,     University of Copenhagen,     Denmark     (QM/MM)
  Patrick Norman,           KTH Stockholm,                Sweden      (Cubic response and complex frequency response in RESPONS)
  Jeppe Olsen,              Aarhus University,            Denmark     (SIRIUS CI/density modules)
  Jogvan Magnus H. Olsen,   Aarhus University,            Denmark     (Polarizable embedding and polarizable density embedding)
  Anders Osted,             Copenhagen University,        Denmark     (QM/MM)
  Martin J. Packer,         University of Sheffield,      UK          (SOPPA)
  Filip Pawlowski,          Kazimierz Wielki University,  Poland      (CC3)
  Morten N. Pedersen,       Univ. of Southern Denmark,    Denmark     (Polarizable embedding)
  Thomas B. Pedersen,       University of Oslo,           Norway      (Cholesky decomposition)
  Patricio F. Provasi,      University of Northeastern,   Argentina   (Analysis of coupling constants in localized orbitals)
  Peter Reinholdt,          Univ. of Southern Denmark,    Denmark     (Polarizable embedding and polarizable density embedding)
  Zilvinas Rinkevicius,     KTH Stockholm,                Sweden      (open-shell DFT, ESR)
  Elias Rudberg,            KTH Stockholm,                Sweden      (DFT grid and basis info)
  Torgeir A. Ruden,         University of Oslo,           Norway      (Numerical derivatives in ABACUS)
  Kenneth Ruud,             UiT The Arctic U. of Norway,  Norway      (DALTON; ABACUS magnetic properties and much more)
  Pawel Salek,              KTH Stockholm,                Sweden      (DALTON; DFT code)
  Claire C. M. Samson       University of Karlsruhe       Germany     (Boys localization, r12 integrals in ERI)
  Alfredo Sanchez de Meras, University of Valencia,       Spain       (CC module, Cholesky decomposition)
  Trond Saue,               Paul Sabatier University,     France      (direct Fock matrix construction)
  Stephan P. A. Sauer,      University of Copenhagen,     Denmark     (SOPPA(CCSD), SOPPA prop., AOSOPPA, vibrational g-factors)
  Bernd Schimmelpfennig,    Forschungszentrum Karlsruhe,  Germany     (AMFI module)
  Anna K. Schnack-Petersen, University of Copenhagen,     Denmark     (RPA(D) and HRPA(D) properties in AOSOPPA)
  Kristian Sneskov,         Aarhus University,            Denmark     (Polarizable embedding, QM/MM)
  Arnfinn H. Steindal,      UiT The Arctic U. of Norway,  Norway      (parallel QM/MM, polarizable embedding)
  Casper Steinmann,         Aalborg University,           Denmark     (QFIT, polarizable embedding)
  K. O. Sylvester-Hvid,     University of Copenhagen,     Denmark     (MC-SCRF)
  Peter R. Taylor,          VLSCI/Univ. of Melbourne,     Australia   (Symmetry handling ABACUS, integral transformation)
  Andrew M. Teale,          University of Nottingham,     England     (DFT-AC, DFT-D)
  David P. Tew,             University of Bristol,        England     (CCSD(R12))
  Julien Toulouse,          Sorbonne Univ.,               France      (MC-srDFT)
  Olav Vahtras,             KTH Stockholm,                Sweden      (Triplet response, spin-orbit, ESR, TDDFT, open-shell DFT)
  Lucas Visscher,           Vrije Universiteit Amsterdam, Netherlands (Frozen density embedding)
  David J. Wilson,          La Trobe University,          Australia   (DFT Hessian and DFT magnetizabilities)
  Hans Agren,               KTH Stockholm,                Sweden      (SIRIUS module, RESPONS, MC-SCRF solvation)
 --------------------------------------------------------------------------------

     Date and time (Linux)  : Tue May 27 19:09:24 2025
     Host name              : xm023                                   

 * Work memory size             :   131072000 = 1000.00 megabytes.

 * Directories for basis set searches:
   1) /gpfs/projects/rjh/adrian/summer2025/beta_projects/raw_data/NLO/dalton/hf/n7/dipole
   2) /gpfs/projects/rjh/adrian/dalton/build/basis


Compilation information
-----------------------

 Who compiled             | ahurtado
 Host                     | milan2
 System                   | Linux-5.14.0-427.42.1.el9_4.x86_64
 CMake generator          | Unix Makefiles
 Processor                | x86_64
 64-bit integers          | OFF
 MPI                      | ON
 Fortran compiler         | /gpfs/software/openmpi/milan/gcc13.2/4.1.6/bin/mpi
                          | f90
 Fortran compiler version | GNU Fortran (GCC) 13.2.0
 C compiler               | /gpfs/software/openmpi/milan/gcc13.2/4.1.6/bin/mpi
                          | cc
 C compiler version       | gcc (GCC) 13.2.0
 C++ compiler             | /gpfs/software/openmpi/milan/gcc13.2/4.1.6/bin/mpi
                          | cxx
 C++ compiler version     | unknown
 BLAS                     | /gpfs/software/intel/oneAPI/2024_2/mkl/2024.2/lib/
                          | intel64/libmkl_gf_lp64.so;/gpfs/software/intel/one
                          | API/2024_2/mkl/2024.2/lib/intel64/libmkl_sequentia
                          | l.so;/gpfs/software/intel/oneAPI/2024_2/mkl/2024.2
                          | /lib/intel64/libmkl_core.so;/usr/lib64/libpthread.
                          | a;/usr/lib64/libm.so
 LAPACK                   | /gpfs/software/intel/oneAPI/2024_2/mkl/2024.2/lib/
                          | intel64/libmkl_lapack95_lp64.a;/gpfs/software/inte
                          | l/oneAPI/2024_2/mkl/2024.2/lib/intel64/libmkl_gf_l
                          | p64.so
 Static linking           | OFF
 Last Git revision        | 66052b3af5ea7225e31178bf9a8b031913c72190
 Git branch               | (HEAD detached at Dalton2020.0)
 Configuration time       | 2025-04-10 16:02:31.569498

 * MPI parallel run using 576 processes.


   Content of the .dal input file
 ----------------------------------

**DALTON INPUT
.RUN RESPONSE
.DIRECT
**WAVE FUNCTIONS
.HF
**PROPERTIES
**RESPONSE
*QUADRA
.DIPLEN
.FREQUENCIES
2
0.0 0.019
**END OF DALTON INPUT


   Content of the .mol file
 ----------------------------

BASIS
aug-cc-pVTZ
blah
blah
Atomtype=4 Angstrom Charge=0 Nosymmetry
Charge=6 Atoms=14
C_a -5.688253998920483 -4.073789998608875 0.0
C_b -4.365261002041478 -3.7894669992272423 0.0
C_c -3.8410090024243475 -2.441841999132047 0.0
C_d -2.4968229980187657 -2.1745299991576497 0.0
C_e -1.934394000672653 -0.8473809979274352 0.0
C_f -0.5830420001909361 -0.5998170024375289 0.0
C_g 0.0 0.716076997491983 0.0
C_h 1.355741001558786 0.9461549988185847 0.0
C_i 1.9581610002367398 2.2527620022021035 0.0
C_j 3.3169849988084334 2.463290001281131 0.0
C_k 3.9445530014007044 3.7589580015352984 0.0
C_l 5.306200001638159 3.9389670014730997 0.0
C_m 5.975829998785722 5.214614000011564 0.0
C_n 7.341654001126106 5.320060999614071 0.0
Charge=7 Atoms=2
N_a 8.06204499940909 6.482939001032188 0.0
N_b -6.16284599821494 -5.452471001586912 0.0
Charge=8 Atoms=2
O_a -7.391974001849472 -5.593242998341496 0.0
O_b -5.336911002146733 -6.368107001264271 0.0
Charge=1 Atoms=16
H_a -6.50302400143975 -3.3473629986818767 0.0
H_b -3.6635359996003283 -4.632344000577958 0.0
H_c -4.55348100133573 -1.6057969983691793 0.0
H_d -1.7949299976885436 -3.021543001961013 0.0
H_e -2.630119001395431 0.0038470019025845527 0.0
H_f 0.10581700030820816 -1.4578720021307559 0.0
H_g -0.6827879990744163 1.5780069978540112 0.0
H_h 2.032161998643914 0.07803700124232153 0.0
H_i 1.2879499982624942 3.1245889975561805 0.0
H_j 3.9786580016606683 1.583488998584403 0.0
H_k 3.2915520012155386 4.643521001157808 0.0
H_l 5.942742997893013 3.040383001853259 0.0
H_m 5.36415599776086 6.127034999420813 0.0
H_n 7.952118001416368 4.408326999226803 0.0
H_o 7.597205000550958 7.380607000192131 0.0
H_p 9.070163998419307 6.470251998573463 0.0


       *******************************************************************
       *********** Output from DALTON general input processing ***********
       *******************************************************************

 --------------------------------------------------------------------------------
   Overall default print level:    0
   Print level for DALTON.STAT:    1

    Parallel calculation using MPI
    AO-direct calculation (in sections where implemented)
    HERMIT 1- and 2-electron integral sections will be executed
    "Old" integral transformation used (limited to max 255 basis functions)
    Wave function sections will be executed (SIRIUS module)
    Dynamic molecular response properties section will be executed (RESPONSE module)
 --------------------------------------------------------------------------------


   ****************************************************************************
   *************** Output of molecule and basis set information ***************
   ****************************************************************************


    The two title cards from your ".mol" input:
    ------------------------------------------------------------------------
 1: blah                                                                    
 2: blah                                                                    
    ------------------------------------------------------------------------

  Coordinates are entered in Angstrom and converted to atomic units.
          - Conversion factor : 1 bohr = 0.52917721 A

  Atomic type no.    1
  --------------------
  Nuclear charge:   6.00000
  Number of symmetry independent centers:   14
  Number of basis sets to read;    2
  Basis set file used for this atomic type with Z =   6 :
     "/gpfs/projects/rjh/adrian/dalton/build/basis/aug-cc-pVTZ"

  Atomic type no.    2
  --------------------
  Nuclear charge:   7.00000
  Number of symmetry independent centers:    2
  Number of basis sets to read;    2
  Basis set file used for this atomic type with Z =   7 :
     "/gpfs/projects/rjh/adrian/dalton/build/basis/aug-cc-pVTZ"

  Atomic type no.    3
  --------------------
  Nuclear charge:   8.00000
  Number of symmetry independent centers:    2
  Number of basis sets to read;    2
  Basis set file used for this atomic type with Z =   8 :
     "/gpfs/projects/rjh/adrian/dalton/build/basis/aug-cc-pVTZ"

  Atomic type no.    4
  --------------------
  Nuclear charge:   1.00000
  Number of symmetry independent centers:   16
  Number of basis sets to read;    2
  Basis set file used for this atomic type with Z =   1 :
     "/gpfs/projects/rjh/adrian/dalton/build/basis/aug-cc-pVTZ"


                         SYMGRP: Point group information
                         -------------------------------

@    Point group: C1 


                                 Isotopic Masses
                                 ---------------

                           C_a        12.000000
                           C_b        12.000000
                           C_c        12.000000
                           C_d        12.000000
                           C_e        12.000000
                           C_f        12.000000
                           C_g        12.000000
                           C_h        12.000000
                           C_i        12.000000
                           C_j        12.000000
                           C_k        12.000000
                           C_l        12.000000
                           C_m        12.000000
                           C_n        12.000000
                           N_a        14.003074
                           N_b        14.003074
                           O_a        15.994915
                           O_b        15.994915
                           H_a         1.007825
                           H_b         1.007825
                           H_c         1.007825
                           H_d         1.007825
                           H_e         1.007825
                           H_f         1.007825
                           H_g         1.007825
                           H_h         1.007825
                           H_i         1.007825
                           H_j         1.007825
                           H_k         1.007825
                           H_l         1.007825
                           H_m         1.007825
                           H_n         1.007825
                           H_o         1.007825
                           H_p         1.007825

                       Total mass:   244.121178 amu
                       Natural abundance:  84.411 %

 Center-of-mass coordinates (a.u.):   -0.205246   -0.186700    0.000000
 Center-of-mass coordinates (Angs):   -0.108612   -0.098797    0.000000


  Atoms and basis sets
  --------------------

  Number of atom types :    4
  Total number of atoms:   34

  Basis set used is "aug-cc-pVTZ" from the basis set library.

  label    atoms   charge   prim   cont     basis
  ----------------------------------------------------------------------
  C_         14    6.0000    58    46      [11s6p3d2f|5s4p3d2f]                               
  N_          2    7.0000    58    46      [11s6p3d2f|5s4p3d2f]                               
  O_          2    8.0000    58    46      [11s6p3d2f|5s4p3d2f]                               
  H_         16    1.0000    25    23      [6s3p2d|4s3p2d]                                    
  ----------------------------------------------------------------------
  total:     34  130.0000  1444  1196
  ----------------------------------------------------------------------
  Spherical harmonic basis used.

  Threshold for neglecting AO integrals:  1.00D-12

  Max    interatomic separation is   20.4091 Angstrom (   38.5675 Bohr)
  between atoms   34 and   17, "H_p   " and "O_a   ".

  Min HX interatomic separation is    1.0082 Angstrom (    1.9052 Bohr)

  Min YX interatomic separation is    1.2331 Angstrom (    2.3302 Bohr)


  Bond distances (Angstrom):
  --------------------------

                  atom 1     atom 2       distance
                  ------     ------       --------
  bond distance:  C_b        C_a          1.353200
  bond distance:  C_c        C_b          1.446006
  bond distance:  C_d        C_c          1.370508
  bond distance:  C_e        C_d          1.441406
  bond distance:  C_f        C_e          1.373841
  bond distance:  C_g        C_f          1.439276
  bond distance:  C_h        C_g          1.375125
  bond distance:  C_i        C_h          1.438795
  bond distance:  C_j        C_i          1.375036
  bond distance:  C_k        C_j          1.439652
  bond distance:  C_l        C_k          1.373494
  bond distance:  C_m        C_l          1.440722
  bond distance:  C_n        C_m          1.369888
  bond distance:  N_a        C_n          1.367936
  bond distance:  N_b        C_a          1.458081
  bond distance:  O_a        N_b          1.237163
  bond distance:  O_b        N_b          1.233109
  bond distance:  H_a        C_a          1.091580
  bond distance:  H_b        C_b          1.096750
  bond distance:  H_c        C_c          1.098448
  bond distance:  H_d        C_d          1.100039
  bond distance:  H_e        C_e          1.099374
  bond distance:  H_f        C_f          1.100357
  bond distance:  H_g        C_g          1.099601
  bond distance:  H_h        C_h          1.100534
  bond distance:  H_i        C_i          1.099666
  bond distance:  H_j        C_j          1.100846
  bond distance:  H_k        C_k          1.099483
  bond distance:  H_l        C_l          1.101199
  bond distance:  H_m        C_m          1.098479
  bond distance:  H_n        C_n          1.097235
  bond distance:  H_o        N_a          1.010883
  bond distance:  H_p        N_a          1.008199


  Bond angles (degrees):
  ----------------------

                  atom 1     atom 2     atom 3         angle
                  ------     ------     ------         -----
  bond angle:     C_b        C_a        N_b          121.124
  bond angle:     C_b        C_a        H_a          126.152
  bond angle:     N_b        C_a        H_a          112.724
  bond angle:     C_a        C_b        C_c          123.386
  bond angle:     C_a        C_b        H_b          117.650
  bond angle:     C_c        C_b        H_b          118.964
  bond angle:     C_b        C_c        C_d          122.504
  bond angle:     C_b        C_c        H_c          118.306
  bond angle:     C_d        C_c        H_c          119.190
  bond angle:     C_c        C_d        C_e          124.214
  bond angle:     C_c        C_d        H_d          118.400
  bond angle:     C_e        C_d        H_d          117.386
  bond angle:     C_d        C_e        C_f          123.348
  bond angle:     C_d        C_e        H_e          117.774
  bond angle:     C_f        C_e        H_e          118.878
  bond angle:     C_e        C_f        C_g          124.278
  bond angle:     C_e        C_f        H_f          118.377
  bond angle:     C_g        C_f        H_f          117.345
  bond angle:     C_f        C_g        C_h          123.529
  bond angle:     C_f        C_g        H_g          117.718
  bond angle:     C_h        C_g        H_g          118.753
  bond angle:     C_g        C_h        C_i          124.384
  bond angle:     C_g        C_h        H_h          118.293
  bond angle:     C_i        C_h        H_h          117.323
  bond angle:     C_h        C_i        C_j          123.559
  bond angle:     C_h        C_i        H_i          117.697
  bond angle:     C_j        C_i        H_i          118.744
  bond angle:     C_i        C_j        C_k          124.651
  bond angle:     C_i        C_j        H_j          118.139
  bond angle:     C_k        C_j        H_j          117.211
  bond angle:     C_j        C_k        C_l          123.374
  bond angle:     C_j        C_k        H_k          117.721
  bond angle:     C_l        C_k        H_k          118.905
  bond angle:     C_k        C_l        C_m          125.227
  bond angle:     C_k        C_l        H_l          117.782
  bond angle:     C_m        C_l        H_l          116.990
  bond angle:     C_l        C_m        C_n          122.111
  bond angle:     C_l        C_m        H_m          118.466
  bond angle:     C_n        C_m        H_m          119.423
  bond angle:     C_m        C_n        N_a          126.192
  bond angle:     C_m        C_n        H_n          119.390
  bond angle:     N_a        C_n        H_n          114.417
  bond angle:     C_n        N_a        H_o          120.846
  bond angle:     C_n        N_a        H_p          121.057
  bond angle:     H_o        N_a        H_p          118.098
  bond angle:     C_a        N_b        O_a          115.529
  bond angle:     C_a        N_b        O_b          118.953
  bond angle:     O_a        N_b        O_b          125.518




 Principal moments of inertia (u*A**2) and principal axes
 --------------------------------------------------------

   IA      97.541278          0.769275    0.638918    0.000000
   IB    9862.539910         -0.638918    0.769275    0.000000
   IC    9960.081189          0.000000    0.000000    1.000000


 Rotational constants
 --------------------

@    The molecule is planar.

               A                   B                   C

           5181.1809             51.2423             50.7405 MHz
            0.172826            0.001709            0.001693 cm-1


@  Nuclear repulsion energy :  980.156376287948 Hartree


                     .---------------------------------------.
                     | Starting in Integral Section (HERMIT) |
                     `---------------------------------------'



 ***************************************************************************************
 ****************** Output from **INTEGRALS input processing (HERMIT) ******************
 ***************************************************************************************


 - Using defaults, no **INTEGRALS input found

 Default print level:        1

 Calculation of one-electron Hamiltonian integrals.

 Center of mass  (bohr):     -0.205246260585     -0.186699563756      0.000000000000
 Operator center (bohr):      0.000000000000      0.000000000000      0.000000000000
 Gauge origin    (bohr):      0.000000000000      0.000000000000      0.000000000000
 Dipole origin   (bohr):      0.000000000000      0.000000000000      0.000000000000


     ************************************************************************
     ************************** Output from HERINT **************************
     ************************************************************************



                      Nuclear contribution to dipole moments
                      --------------------------------------

                 au               Debye          C m (/(10**-30)

      x      0.00001130         0.00002872         0.00009581
      y     -0.00001317        -0.00003347        -0.00011166
      z      0.00000000         0.00000000         0.00000000


  Time used in ONEDRV     is       2.33 seconds
  Time used in HUCKEL     is       0.57 seconds
  Time used in OVERLAP    is       0.30 seconds
  Time used in POPOVLP    is       0.59 seconds
  Time used in R2         is       0.38 seconds
  Time used in R4         is       0.45 seconds
  Time used in DIPLEN     is       0.50 seconds
  Time used in QUADRUP    is       1.03 seconds
  Time used in KINENE     is       0.53 seconds
  Time used in GABGEN     is       3.07 seconds
  Total CPU  time used in HERMIT:   9.77 seconds
  Total wall time used in HERMIT:   9.89 seconds


                        .----------------------------------.
                        | End of Integral Section (HERMIT) |
                        `----------------------------------'



                   .--------------------------------------------.
                   | Starting in Wave Function Section (SIRIUS) |
                   `--------------------------------------------'



@ Primary orbitals are deleted during canonical orthonormalization
@   because of detected numerical linear dependence or too large coefficients.
@ Eigenvalue threshold for num. lin. dep. =  1.00D-06

@   5 MO components are deleted in symmetry    1
 Overlap eigenvalues of the deleted orbitals:
  8.33D-07  8.21D-07  7.62D-07  5.39D-07  1.32D-07

 Max MO coeff. of last deleted MO & limit:  2.98D+02  1.00D+03

WARNING: Orbitals have been deleted because of numerical
   linear dependence although not requested in input.

 *** Output from Huckel module :

     Using EWMO model:          T
     Using EHT  model:          F
     Number of Huckel orbitals each symmetry:  106

 EWMO - Energy Weighted Maximum Overlap - is a Huckel type method,
        which normally is better than Extended Huckel Theory.
 Reference: Linderberg and Ohrn, Propagators in Quantum Chemistry (Wiley, 1973)

 Huckel EWMO eigenvalues for symmetry :  1
          -20.684753     -20.683492     -15.677078     -15.674970     -11.359301
          -11.359159     -11.358872     -11.357977     -11.356157     -11.353878
          -11.351614     -11.348326     -11.347057     -11.346068     -11.345522
          -11.345452     -11.345269     -11.345246      -1.964051      -1.791566
           -1.778481      -1.739932      -1.665395      -1.556023      -1.449247
           -1.414950      -1.276025      -1.196856      -1.147045      -1.126329
           -1.059899      -0.992425      -0.966392      -0.880475      -0.872099
           -0.852004      -0.820399      -0.772916      -0.756153      -0.734376
           -0.730012      -0.689678      -0.670994      -0.653153      -0.626376
           -0.604435      -0.603097      -0.585270      -0.559913      -0.549165
           -0.535375      -0.531153      -0.508130      -0.501152      -0.494001
           -0.488089      -0.484778      -0.477616      -0.476986      -0.470451
           -0.449592      -0.413294      -0.403925      -0.370769      -0.366828
           -0.335018      -0.291582      -0.260815      -0.236815      -0.229147
           -0.219194      -0.207046      -0.201042      -0.199305      -0.195045
           -0.190532      -0.166582      -0.142745      -0.138800      -0.132988
           -0.131056      -0.130764      -0.129488      -0.129047      -0.128951
           -0.127697      -0.127089      -0.126387      -0.125248      -0.125045
           -0.123898      -0.123125      -0.111232      -0.108736      -0.103713
           -0.101414      -0.095966      -0.094499      -0.090640      -0.089296
           -0.087338      -0.085948      -0.085051      -0.082948      -0.080875
           -0.079433

 **********************************************************************
 *SIRIUS* a direct, restricted step, second order MCSCF program       *
 **********************************************************************

 
     Date and time (Linux)  : Tue May 27 19:11:07 2025
     Host name              : xm023                                   

 Title lines from ".mol" input file:
     blah                                                                    
     blah                                                                    

 Print level on unit LUPRI =   2 is   0
 Print level on unit LUW4  =   2 is   5

@    Restricted, closed shell Hartree-Fock calculation.

@    Time-dependent Hartree-Fock calculation (random phase approximation).
 Fock matrices are calculated directly and in parallel without use of integrals on disk.

 Initial molecular orbitals are obtained according to
 ".MOSTART EWMO  " input option

     Wave function specification
     ============================
@    Wave function type        --- HF ---
@    Number of closed shell electrons         130
@    Number of electrons in active shells       0
@    Total charge of the molecule               0

@    Spin multiplicity and 2 M_S                1         0
@    Total number of symmetries                 1 (point group: C1 )
@    Reference state symmetry                   1 (irrep name : A  )

     Orbital specifications
     ======================
@    Abelian symmetry species          All |    1
@                                          |  A  
                                       --- |  ---
@    Occupied SCF orbitals              65 |   65
@    Secondary orbitals               1126 | 1126
@    Total number of orbitals         1191 | 1191
@    Number of basis functions        1196 | 1196

     Optimization information
     ========================
@    Number of configurations                 1
@    Number of orbital rotations          73190
     ------------------------------------------
@    Total number of variables            73191

     Maximum number of Fock   iterations      0
     Maximum number of DIIS   iterations     60
     Maximum number of QC-SCF iterations     60
     Threshold for SCF convergence     1.00D-05

    INFORMATION: Switched to "new" integral transformation (from 1988 ;-) )
    because more than 255 basis functions.


 ***********************************************
 ***** DIIS acceleration of SCF iterations *****
 ***********************************************

 C1-DIIS algorithm; max error vectors =    8

 Iter      Total energy        Error norm    Delta(E)  DIIS dim.
 -----------------------------------------------------------------------------
   1  Screening settings (-IFTHRS, JTDIIS, DIFDEN, times)  -10    1    T  1.58D+01  1.59D+01
@  1    -795.002474191        7.02162D+00   -7.95D+02    1
      Virial theorem: -V/T =      2.009385
@    MULPOP   C_a     0.18; C_b    -0.03; C_c    -0.06; C_d     0.02; C_e     0.01; C_f     0.09; C_g     0.01; C_h     0.11; C_i    -0.00; C_j     0.06; 
@             C_k    -0.10; C_l    -0.05; C_m    -0.06; C_n     0.34; N_a    -0.68; N_b     0.69; O_a    -0.90; O_b    -0.95; H_a     0.30; H_b     0.07; 
@             H_c     0.05; H_d     0.00; H_e    -0.01; H_f    -0.03; H_g    -0.02; H_h    -0.04; H_i     0.00; H_j    -0.04; H_k     0.03; H_l    -0.00; 
@    MULPOP    dipole moment & components:     22.2653;       15.6257     15.8612      0.0000
   1  Level shift: doubly occupied orbital energies shifted by -2.00D-01
 -----------------------------------------------------------------------------
   2  Screening settings (-IFTHRS, JTDIIS, DIFDEN, times)  -10    2    T  1.19D+01  1.20D+01
@  2    -797.666128782        2.93517D+00   -2.66D+00    2
      Virial theorem: -V/T =      2.001239
@    MULPOP   C_a    -0.84; C_b     0.28; C_c    -0.11; C_d     0.15; C_e    -0.01; C_f    -0.09; C_g    -0.12; C_h    -0.09; C_i    -0.10; C_j     0.07; 
@             C_k     0.01; C_l     0.05; C_m     0.17; C_n    -0.50; N_a    -0.55; N_b     0.21; O_a    -0.21; O_b    -0.32; H_a     0.56; H_b     0.23; 
@             H_c     0.03; H_d     0.01; H_e     0.01; H_f    -0.00; H_g    -0.05; H_h    -0.04; H_i     0.01; H_j     0.02; H_k    -0.07; H_l     0.04; 
@    MULPOP    dipole moment & components:      8.3776;        6.5685      5.1999      0.0000
   2  Level shift: doubly occupied orbital energies shifted by -1.00D-01
 -----------------------------------------------------------------------------
   3  Screening settings (-IFTHRS, JTDIIS, DIFDEN, times)  -10    3    T  1.15D+01  1.16D+01
@  3    -798.082717746        8.90798D-01   -4.17D-01    3
      Virial theorem: -V/T =      2.001542
@    MULPOP   C_a    -0.58; C_b     0.26; C_c    -0.09; C_d     0.13; C_e    -0.06; C_f    -0.10; C_g    -0.16; C_h    -0.13; C_i    -0.15; C_j     0.03; 
@             C_k    -0.06; C_l     0.07; C_m     0.04; C_n    -0.38; N_a    -0.54; N_b     0.90; O_a    -0.74; O_b    -0.71; H_a     0.53; H_b     0.26; 
@             H_c     0.04; H_d     0.04; H_e     0.05; H_f     0.05; H_g     0.01; H_h     0.00; H_i     0.05; H_j     0.07; H_k    -0.01; H_l     0.07; 
@    MULPOP    dipole moment & components:      7.6949;        5.8500      4.9989      0.0000
   3  Level shift: doubly occupied orbital energies shifted by -5.00D-02
 -----------------------------------------------------------------------------
   4  Screening settings (-IFTHRS, JTDIIS, DIFDEN, times)  -10    4    T  1.13D+01  1.13D+01
@  4    -798.133590940        2.66702D-01   -5.09D-02    4
      Virial theorem: -V/T =      2.003393
@    MULPOP   C_a    -0.64; C_b     0.26; C_c    -0.11; C_d     0.15; C_e    -0.07; C_f    -0.08; C_g    -0.16; C_h    -0.12; C_i    -0.15; C_j     0.04; 
@             C_k    -0.06; C_l     0.08; C_m     0.02; C_n    -0.35; N_a    -0.55; N_b     0.72; O_a    -0.63; O_b    -0.66; H_a     0.54; H_b     0.30; 
@             H_c     0.06; H_d     0.04; H_e     0.05; H_f     0.05; H_g     0.01; H_h     0.01; H_i     0.06; H_j     0.07; H_k    -0.01; H_l     0.08; 
@    MULPOP    dipole moment & components:      7.1383;        5.5238      4.5215      0.0000
   4  Level shift: doubly occupied orbital energies shifted by -2.50D-02
 -----------------------------------------------------------------------------
   5  Screening settings (-IFTHRS, JTDIIS, DIFDEN, times)  -10    5    T  1.09D+01  1.10D+01
@  5    -798.143545393        1.09034D-01   -9.95D-03    5
      Virial theorem: -V/T =      2.002723
@    MULPOP   C_a    -0.62; C_b     0.24; C_c    -0.12; C_d     0.14; C_e    -0.09; C_f    -0.10; C_g    -0.18; C_h    -0.14; C_i    -0.16; C_j     0.03; 
@             C_k    -0.08; C_l     0.07; C_m     0.01; C_n    -0.36; N_a    -0.56; N_b     0.77; O_a    -0.66; O_b    -0.66; H_a     0.54; H_b     0.32; 
@             H_c     0.07; H_d     0.06; H_e     0.06; H_f     0.07; H_g     0.02; H_h     0.03; H_i     0.07; H_j     0.08; H_k    -0.00; H_l     0.08; 
@    MULPOP    dipole moment & components:      6.6152;        5.1980      4.0917      0.0000
   5  Level shift: doubly occupied orbital energies shifted by -1.25D-02
 -----------------------------------------------------------------------------
   6  Screening settings (-IFTHRS, JTDIIS, DIFDEN, times)  -14    6    F  1.34D+01  1.34D+01
@  6    -798.146240440        5.48977D-02   -2.70D-03    6
      Virial theorem: -V/T =      2.002581
@    MULPOP   C_a    -0.64; C_b     0.25; C_c    -0.13; C_d     0.14; C_e    -0.09; C_f    -0.10; C_g    -0.18; C_h    -0.14; C_i    -0.16; C_j     0.03; 
@             C_k    -0.08; C_l     0.07; C_m     0.01; C_n    -0.37; N_a    -0.57; N_b     0.76; O_a    -0.65; O_b    -0.67; H_a     0.54; H_b     0.33; 
@             H_c     0.07; H_d     0.06; H_e     0.06; H_f     0.07; H_g     0.03; H_h     0.03; H_i     0.07; H_j     0.08; H_k    -0.00; H_l     0.08; 
@    MULPOP    dipole moment & components:      6.3164;        4.9698      3.8985      0.0000
   6  Level shift: doubly occupied orbital energies shifted by -1.25D-02
 -----------------------------------------------------------------------------
   7  Screening settings (-IFTHRS, JTDIIS, DIFDEN, times)  -14    7    T  1.27D+01  1.28D+01
@  7    -798.147046206        2.59555D-02   -8.06D-04    7
      Virial theorem: -V/T =      2.002620
@    MULPOP   C_a    -0.64; C_b     0.25; C_c    -0.13; C_d     0.14; C_e    -0.09; C_f    -0.10; C_g    -0.18; C_h    -0.14; C_i    -0.16; C_j     0.03; 
@             C_k    -0.08; C_l     0.07; C_m     0.02; C_n    -0.37; N_a    -0.57; N_b     0.76; O_a    -0.65; O_b    -0.66; H_a     0.54; H_b     0.33; 
@             H_c     0.07; H_d     0.07; H_e     0.07; H_f     0.07; H_g     0.03; H_h     0.03; H_i     0.07; H_j     0.08; H_k    -0.00; H_l     0.08; 
@    MULPOP    dipole moment & components:      6.1280;        4.8493      3.7465      0.0000
 -----------------------------------------------------------------------------
   8  Screening settings (-IFTHRS, JTDIIS, DIFDEN, times)  -14    8    T  1.26D+01  1.27D+01
@  8    -798.147238091        1.10802D-02   -1.92D-04    8
      Virial theorem: -V/T =      2.002617
@    MULPOP   C_a    -0.63; C_b     0.25; C_c    -0.13; C_d     0.14; C_e    -0.09; C_f    -0.10; C_g    -0.18; C_h    -0.14; C_i    -0.16; C_j     0.03; 
@             C_k    -0.08; C_l     0.07; C_m     0.02; C_n    -0.38; N_a    -0.57; N_b     0.76; O_a    -0.65; O_b    -0.66; H_a     0.54; H_b     0.33; 
@             H_c     0.07; H_d     0.07; H_e     0.07; H_f     0.07; H_g     0.03; H_h     0.03; H_i     0.07; H_j     0.08; H_k    -0.00; H_l     0.08; 
@    MULPOP    dipole moment & components:      5.9635;        4.7164      3.6494      0.0000
 -----------------------------------------------------------------------------
   9  Screening settings (-IFTHRS, JTDIIS, DIFDEN, times)  -14    9    T  1.25D+01  1.26D+01
@  9    -798.147265612        4.22932D-03   -2.75D-05    8
      Virial theorem: -V/T =      2.002607
@    MULPOP   C_a    -0.63; C_b     0.25; C_c    -0.13; C_d     0.14; C_e    -0.09; C_f    -0.10; C_g    -0.18; C_h    -0.14; C_i    -0.16; C_j     0.03; 
@             C_k    -0.08; C_l     0.07; C_m     0.02; C_n    -0.38; N_a    -0.57; N_b     0.76; O_a    -0.65; O_b    -0.66; H_a     0.54; H_b     0.33; 
@             H_c     0.07; H_d     0.07; H_e     0.07; H_f     0.07; H_g     0.03; H_h     0.03; H_i     0.07; H_j     0.08; H_k    -0.00; H_l     0.08; 
@    MULPOP    dipole moment & components:      5.8954;        4.6629      3.6073      0.0000
 -----------------------------------------------------------------------------
  10  Screening settings (-IFTHRS, JTDIIS, DIFDEN, times)  -14   10    T  1.23D+01  1.24D+01
@ 10    -798.147271823        2.32947D-03   -6.21D-06    8
      Virial theorem: -V/T =      2.002607
@    MULPOP   C_a    -0.63; C_b     0.25; C_c    -0.12; C_d     0.14; C_e    -0.09; C_f    -0.10; C_g    -0.18; C_h    -0.14; C_i    -0.16; C_j     0.03; 
@             C_k    -0.08; C_l     0.07; C_m     0.02; C_n    -0.38; N_a    -0.57; N_b     0.76; O_a    -0.65; O_b    -0.66; H_a     0.54; H_b     0.33; 
@             H_c     0.07; H_d     0.07; H_e     0.07; H_f     0.07; H_g     0.03; H_h     0.03; H_i     0.07; H_j     0.08; H_k    -0.00; H_l     0.08; 
@    MULPOP    dipole moment & components:      5.8488;        4.6218      3.5844      0.0000
 -----------------------------------------------------------------------------
  11  Screening settings (-IFTHRS, JTDIIS, DIFDEN, times)  -14   11    T  1.21D+01  1.22D+01
@ 11    -798.147274066        1.36738D-03   -2.24D-06    8
      Virial theorem: -V/T =      2.002609
@    MULPOP   C_a    -0.63; C_b     0.25; C_c    -0.12; C_d     0.14; C_e    -0.09; C_f    -0.10; C_g    -0.18; C_h    -0.14; C_i    -0.16; C_j     0.03; 
@             C_k    -0.08; C_l     0.07; C_m     0.02; C_n    -0.38; N_a    -0.57; N_b     0.76; O_a    -0.65; O_b    -0.66; H_a     0.54; H_b     0.33; 
@             H_c     0.07; H_d     0.07; H_e     0.07; H_f     0.07; H_g     0.03; H_h     0.03; H_i     0.07; H_j     0.08; H_k    -0.00; H_l     0.08; 
@    MULPOP    dipole moment & components:      5.8170;        4.5930      3.5695      0.0000
 -----------------------------------------------------------------------------
  12  Screening settings (-IFTHRS, JTDIIS, DIFDEN, times)  -14   12    T  1.21D+01  1.22D+01
@ 12    -798.147274862        4.39989D-04   -7.97D-07    8
      Virial theorem: -V/T =      2.002607
@    MULPOP   C_a    -0.63; C_b     0.25; C_c    -0.12; C_d     0.14; C_e    -0.09; C_f    -0.10; C_g    -0.18; C_h    -0.14; C_i    -0.16; C_j     0.03; 
@             C_k    -0.08; C_l     0.07; C_m     0.02; C_n    -0.38; N_a    -0.57; N_b     0.76; O_a    -0.65; O_b    -0.66; H_a     0.54; H_b     0.33; 
@             H_c     0.07; H_d     0.07; H_e     0.07; H_f     0.07; H_g     0.03; H_h     0.03; H_i     0.07; H_j     0.08; H_k    -0.00; H_l     0.08; 
@    MULPOP    dipole moment & components:      5.7922;        4.5702      3.5586      0.0000
 -----------------------------------------------------------------------------
  13  Screening settings (-IFTHRS, JTDIIS, DIFDEN, times)  -14   13    T  1.19D+01  1.20D+01
@ 13    -798.147274947        1.78931D-04   -8.46D-08    8
      Virial theorem: -V/T =      2.002607
@    MULPOP   C_a    -0.63; C_b     0.25; C_c    -0.12; C_d     0.14; C_e    -0.09; C_f    -0.10; C_g    -0.18; C_h    -0.14; C_i    -0.16; C_j     0.03; 
@             C_k    -0.08; C_l     0.07; C_m     0.02; C_n    -0.38; N_a    -0.57; N_b     0.76; O_a    -0.65; O_b    -0.66; H_a     0.54; H_b     0.33; 
@             H_c     0.07; H_d     0.07; H_e     0.07; H_f     0.07; H_g     0.03; H_h     0.03; H_i     0.07; H_j     0.08; H_k    -0.00; H_l     0.08; 
@    MULPOP    dipole moment & components:      5.7835;        4.5620      3.5548      0.0000
 -----------------------------------------------------------------------------
  14  Screening settings (-IFTHRS, JTDIIS, DIFDEN, times)  -14   14    T  1.15D+01  1.16D+01
@ 14    -798.147274953        7.37965D-05   -6.31D-09    8
      Virial theorem: -V/T =      2.002607
@    MULPOP   C_a    -0.63; C_b     0.25; C_c    -0.12; C_d     0.14; C_e    -0.09; C_f    -0.10; C_g    -0.18; C_h    -0.14; C_i    -0.16; C_j     0.03; 
@             C_k    -0.08; C_l     0.07; C_m     0.02; C_n    -0.38; N_a    -0.57; N_b     0.76; O_a    -0.65; O_b    -0.66; H_a     0.54; H_b     0.33; 
@             H_c     0.07; H_d     0.07; H_e     0.07; H_f     0.07; H_g     0.03; H_h     0.03; H_i     0.07; H_j     0.08; H_k    -0.00; H_l     0.08; 
@    MULPOP    dipole moment & components:      5.7822;        4.5608      3.5543      0.0000
 -----------------------------------------------------------------------------
  15  Screening settings (-IFTHRS, JTDIIS, DIFDEN, times)  -14   15    T  1.14D+01  1.14D+01
@ 15    -798.147274954        3.39264D-05   -1.23D-09    8
      Virial theorem: -V/T =      2.002607
@    MULPOP   C_a    -0.63; C_b     0.25; C_c    -0.12; C_d     0.14; C_e    -0.09; C_f    -0.10; C_g    -0.18; C_h    -0.14; C_i    -0.16; C_j     0.03; 
@             C_k    -0.08; C_l     0.07; C_m     0.02; C_n    -0.38; N_a    -0.57; N_b     0.76; O_a    -0.65; O_b    -0.66; H_a     0.54; H_b     0.33; 
@             H_c     0.07; H_d     0.07; H_e     0.07; H_f     0.07; H_g     0.03; H_h     0.03; H_i     0.07; H_j     0.08; H_k    -0.00; H_l     0.08; 
@    MULPOP    dipole moment & components:      5.7814;        4.5601      3.5540      0.0000
 -----------------------------------------------------------------------------
  16  Screening settings (-IFTHRS, JTDIIS, DIFDEN, times)  -14   16    T  1.12D+01  1.13D+01
@ 16    -798.147274955        1.46425D-05   -1.47D-10    8
      Virial theorem: -V/T =      2.002607
@    MULPOP   C_a    -0.63; C_b     0.25; C_c    -0.12; C_d     0.14; C_e    -0.09; C_f    -0.10; C_g    -0.18; C_h    -0.14; C_i    -0.16; C_j     0.03; 
@             C_k    -0.08; C_l     0.07; C_m     0.02; C_n    -0.38; N_a    -0.57; N_b     0.76; O_a    -0.65; O_b    -0.66; H_a     0.54; H_b     0.33; 
@             H_c     0.07; H_d     0.07; H_e     0.07; H_f     0.07; H_g     0.03; H_h     0.03; H_i     0.07; H_j     0.08; H_k    -0.00; H_l     0.08; 
@    MULPOP    dipole moment & components:      5.7814;        4.5600      3.5539      0.0000
 -----------------------------------------------------------------------------
  17  Screening settings (-IFTHRS, JTDIIS, DIFDEN, times)  -14   17    T  1.13D+01  1.13D+01
@ 17    -798.147274955        8.83348D-06   -5.62D-11    8

@ *** DIIS converged in  17 iterations !
@     Converged SCF energy, gradient:   -798.147274954597    8.83D-06
    - total time used in SIRFCK :              0.00 seconds


 *** SCF orbital energy analysis ***

 Only the 20 lowest virtual orbital energies printed in each symmetry.

 Number of electrons :  130
 Orbital occupations :   65

 Sym       Hartree-Fock orbital energies

1 A     -20.58444727   -20.58165877   -15.83491643   -15.59775155   -11.30892773
        -11.28630125   -11.28440375   -11.27544446   -11.26728602   -11.26137812
        -11.26033084   -11.25758311   -11.25488209   -11.24934389   -11.24497825
        -11.23998454   -11.23462944   -11.23190446    -1.57481286    -1.37260248
         -1.24283082    -1.13955328    -1.12240965    -1.10618105    -1.08288549
         -1.05248490    -1.01585074    -0.97383387    -0.93561080    -0.87481244
         -0.83137316    -0.79947619    -0.78273971    -0.77833658    -0.76470662
         -0.76110285    -0.73224153    -0.72286501    -0.70811047    -0.69274992
         -0.68566372    -0.66559752    -0.65454539    -0.62751192    -0.62254297
         -0.59751256    -0.58031775    -0.57135464    -0.55169469    -0.54318717
         -0.53560818    -0.53019574    -0.52356379    -0.51462669    -0.50541417
         -0.49459476    -0.47756318    -0.47502790    -0.47423154    -0.44503816
         -0.43625428    -0.40539689    -0.35646459    -0.30033370    -0.24277442
          0.01363491     0.01452593     0.02136175     0.02789590     0.02886514
          0.03307561     0.03972682     0.04484514     0.05285136     0.05961473
          0.06625839     0.06772277     0.07630634     0.07764907     0.08072358
          0.08287084     0.08368272     0.08629871     0.08856862     0.08862293

    E(LUMO) :     0.01363491 au (symmetry 1)
  - E(HOMO) :    -0.24277442 au (symmetry 1)
  ------------------------------------------
    gap     :     0.25640933 au

 --- Writing SIRIFC interface file

 CPU and wall time for SCF :     424.390     426.969


                       .-----------------------------------.
                       | --- Final results from SIRIUS --- |
                       `-----------------------------------'


@    Spin multiplicity:           1
@    Spatial symmetry:            1 ( irrep  A   in C1  )
@    Total charge of molecule:    0

@    Final HF energy:            -798.147274954597                 
@    Nuclear repulsion:           980.156376287948
@    Electronic energy:         -1778.303651242546

@    Final gradient norm:           0.000008833476

 
     Date and time (Linux)  : Tue May 27 19:18:17 2025
     Host name              : xm023                                   

File label for MO orbitals:  27May25   FOCKDIIS

 (Only coefficients > 0.0100 are printed.)

 Molecular orbitals for symmetry species 1  (A  )
 ------------------------------------------------

    Orbital        56       57       58       59       60       61       62
   2 C_a :1s    -0.0000   0.1026   0.0176  -0.0000   0.0000  -0.0000   0.0000
   4 C_a :1s     0.0000   0.0121  -0.0396  -0.0000   0.0000  -0.0000   0.0000
   5 C_a :1s     0.0000  -0.4633  -0.0812  -0.0000   0.0000  -0.0000  -0.0000
   6 C_a :2px   -0.0000  -0.1405   0.0548   0.0000  -0.0000   0.0000   0.0000
   7 C_a :2py   -0.0000  -0.2804  -0.1533   0.0000   0.0000  -0.0000  -0.0000
   8 C_a :2pz   -0.1507  -0.0000  -0.0000   0.1886  -0.2465  -0.0291   0.2945
   9 C_a :2px    0.0000   0.0137   0.0079  -0.0000   0.0000  -0.0000  -0.0000
  10 C_a :2py   -0.0000   0.0270   0.0031   0.0000   0.0000  -0.0000  -0.0000
  12 C_a :2px    0.0000   0.1584  -0.1821   0.0000  -0.0000   0.0000  -0.0000
  13 C_a :2py   -0.0000   0.0443   0.0379   0.0000  -0.0000  -0.0000  -0.0000
  14 C_a :2pz    0.0170   0.0000   0.0000   0.0020  -0.0020   0.0089   0.0085
  15 C_a :2px    0.0000  -0.0678   0.0788  -0.0000  -0.0000   0.0000   0.0000
  16 C_a :2py    0.0000   0.0430   0.0822   0.0000  -0.0000  -0.0000  -0.0000
  17 C_a :2pz   -0.0047  -0.0000   0.0000   0.0036  -0.0071   0.0151   0.0085
  22 C_a :3d2+  -0.0000  -0.0101  -0.0004   0.0000   0.0000   0.0000  -0.0000
  26 C_a :3d1+  -0.0081  -0.0000  -0.0000   0.0113  -0.0139   0.0040   0.0132
  28 C_a :3d2-   0.0000  -0.0512  -0.0129   0.0000  -0.0000   0.0000  -0.0000
  29 C_a :3d1-  -0.0110   0.0000   0.0000   0.0063  -0.0073  -0.0042   0.0058
  30 C_a :3d0   -0.0000  -0.0006   0.0154  -0.0000  -0.0000   0.0000  -0.0000
  31 C_a :3d1+   0.0106  -0.0000  -0.0000   0.0062  -0.0097   0.0309   0.0136
  32 C_a :3d2+  -0.0000   0.0697   0.0261   0.0000  -0.0000   0.0000   0.0000
  48 C_b :1s    -0.0000  -0.0312   0.0478   0.0000  -0.0000   0.0000   0.0000
  50 C_b :1s    -0.0000  -0.1644   0.2318  -0.0000   0.0000   0.0000   0.0000
  51 C_b :1s    -0.0000   0.1876  -0.1163   0.0000  -0.0000   0.0000   0.0000
  52 C_b :2px    0.0000   0.1354  -0.0001   0.0000   0.0000  -0.0000  -0.0000
  53 C_b :2py   -0.0000   0.0875  -0.0771   0.0000   0.0000  -0.0000   0.0000
  54 C_b :2pz   -0.2104   0.0000   0.0000   0.2365  -0.2626  -0.0200   0.2432
  58 C_b :2px   -0.0000   0.0520  -0.0228  -0.0000  -0.0000   0.0000   0.0000
  59 C_b :2py    0.0000  -0.0401   0.1356  -0.0000  -0.0000   0.0000   0.0000
  60 C_b :2pz    0.0045  -0.0000  -0.0000  -0.0071   0.0085  -0.0289  -0.0030
  61 C_b :2px   -0.0000  -0.0942  -0.0959   0.0000   0.0000  -0.0000  -0.0000
  62 C_b :2py    0.0000  -0.0500  -0.1180  -0.0000   0.0000   0.0000   0.0000
  63 C_b :2pz   -0.0015   0.0000  -0.0000   0.0028  -0.0027  -0.0229   0.0067
  69 C_b :3d2-   0.0000  -0.0010  -0.0202  -0.0000  -0.0000   0.0000  -0.0000
  72 C_b :3d1+   0.0046  -0.0000   0.0000  -0.0055   0.0095   0.0019  -0.0148
  74 C_b :3d2-   0.0000  -0.0422   0.0003  -0.0000  -0.0000   0.0000  -0.0000
  75 C_b :3d1-   0.0183  -0.0000  -0.0000   0.0066  -0.0062  -0.0072   0.0121
  78 C_b :3d2+  -0.0000   0.0652  -0.0212  -0.0000   0.0000  -0.0000   0.0000
  92 C_b :4f3+   0.0000  -0.0028  -0.0132  -0.0000   0.0000  -0.0000  -0.0000
  94 C_c :1s     0.0000   0.0356  -0.0055  -0.0000  -0.0000   0.0000  -0.0000
  96 C_c :1s    -0.0000   0.1528  -0.1225   0.0000   0.0000  -0.0000  -0.0000
  97 C_c :1s    -0.0000   0.1623   0.2295   0.0000   0.0000  -0.0000   0.0000
  98 C_c :2px    0.0000  -0.0771  -0.0254  -0.0000   0.0000  -0.0000  -0.0000
  99 C_c :2py    0.0000  -0.0904   0.0503  -0.0000  -0.0000   0.0000   0.0000
 100 C_c :2pz   -0.2918   0.0000   0.0000   0.2598  -0.1728  -0.0212  -0.0054
 104 C_c :2px   -0.0000   0.0554   0.1318   0.0000   0.0000   0.0000   0.0000
 105 C_c :2py   -0.0000  -0.0493   0.1185  -0.0000  -0.0000   0.0000  -0.0000
 106 C_c :2pz    0.0039   0.0000   0.0000   0.0034  -0.0006   0.0135  -0.0048
 107 C_c :2px    0.0000  -0.0156   0.0698  -0.0000   0.0000  -0.0000  -0.0000
 108 C_c :2py    0.0000  -0.0630   0.0150  -0.0000  -0.0000   0.0000  -0.0000
 118 C_c :3d1+  -0.0104   0.0000  -0.0000   0.0088  -0.0007  -0.0003  -0.0106
 120 C_c :3d2-  -0.0000   0.0436   0.0533  -0.0000   0.0000  -0.0000   0.0000
 121 C_c :3d1-  -0.0037  -0.0000  -0.0000   0.0129  -0.0110   0.0001   0.0135
 122 C_c :3d0    0.0000  -0.0069  -0.0148   0.0000   0.0000  -0.0000  -0.0000
 123 C_c :3d1+   0.0036  -0.0000  -0.0000   0.0226  -0.0181  -0.0022   0.0144
 124 C_c :3d2+  -0.0000   0.0442   0.0419   0.0000  -0.0000  -0.0000   0.0000
 140 C_d :1s     0.0000  -0.0241  -0.0089  -0.0000   0.0000  -0.0000   0.0000
 142 C_d :1s     0.0000  -0.1406  -0.1849  -0.0000  -0.0000  -0.0000  -0.0000
 143 C_d :1s     0.0000  -0.1348  -0.0287   0.0000   0.0000  -0.0000  -0.0000
 144 C_d :2px   -0.0000   0.0677   0.0214  -0.0000  -0.0000   0.0000   0.0000
 145 C_d :2py   -0.0000   0.0520  -0.0144  -0.0000  -0.0000   0.0000   0.0000
 146 C_d :2pz   -0.3088  -0.0000  -0.0000   0.2077  -0.0366  -0.0126  -0.1680
 150 C_d :2px   -0.0000   0.0787   0.0454   0.0000   0.0000  -0.0000  -0.0000
 151 C_d :2py    0.0000   0.0553  -0.0138   0.0000   0.0000   0.0000  -0.0000
 152 C_d :2pz    0.0130   0.0000   0.0000  -0.0026   0.0002  -0.0060   0.0034
 153 C_d :2px   -0.0000   0.0352   0.0257   0.0000  -0.0000   0.0000   0.0000
 154 C_d :2py   -0.0000  -0.0101  -0.0237   0.0000  -0.0000  -0.0000   0.0000
 155 C_d :2pz   -0.0054  -0.0000   0.0000   0.0030  -0.0024   0.0122  -0.0043
 162 C_d :3d1-  -0.0069  -0.0000  -0.0000   0.0027   0.0069   0.0003  -0.0107
 166 C_d :3d2-  -0.0000   0.0425   0.0530  -0.0000   0.0000  -0.0000  -0.0000
 167 C_d :3d1-   0.0093   0.0000  -0.0000   0.0237  -0.0134  -0.0066   0.0076
 169 C_d :3d1+  -0.0015  -0.0000   0.0000   0.0243  -0.0159  -0.0003   0.0145
 170 C_d :3d2+   0.0000   0.0209  -0.0149  -0.0000  -0.0000   0.0000   0.0000
 186 C_e :1s    -0.0000   0.0180  -0.0059   0.0000   0.0000   0.0000   0.0000
 188 C_e :1s    -0.0000  -0.0802   0.0369  -0.0000  -0.0000   0.0000   0.0000
 189 C_e :1s     0.0000   0.0469  -0.0322  -0.0000  -0.0000   0.0000   0.0000
 190 C_e :2px   -0.0000  -0.0333   0.0031   0.0000  -0.0000   0.0000   0.0000
 191 C_e :2py    0.0000  -0.0508   0.0114   0.0000   0.0000  -0.0000  -0.0000
 192 C_e :2pz   -0.3150  -0.0000  -0.0000   0.0810   0.1853   0.0042  -0.2837
 196 C_e :2px    0.0000  -0.0685   0.0231  -0.0000  -0.0000   0.0000  -0.0000
 199 C_e :2px    0.0000  -0.0533  -0.0020  -0.0000  -0.0000   0.0000  -0.0000
 200 C_e :2py    0.0000  -0.0391   0.0008   0.0000   0.0000  -0.0000  -0.0000
 210 C_e :3d1+  -0.0093  -0.0000   0.0000  -0.0002   0.0122   0.0010  -0.0077
 212 C_e :3d2-   0.0000  -0.0288  -0.0184   0.0000  -0.0000   0.0000   0.0000
 213 C_e :3d1-  -0.0108   0.0000   0.0000   0.0258  -0.0158  -0.0042   0.0126
 215 C_e :3d1+  -0.0050   0.0000   0.0000   0.0344  -0.0081  -0.0014  -0.0004
 216 C_e :3d2+  -0.0000   0.0329  -0.0008   0.0000  -0.0000   0.0000  -0.0000
 234 C_f :1s    -0.0000   0.1124   0.0071   0.0000   0.0000  -0.0000  -0.0000
 235 C_f :1s     0.0000  -0.0136   0.0041  -0.0000  -0.0000   0.0000  -0.0000
 236 C_f :2px    0.0000   0.0295  -0.0015  -0.0000   0.0000  -0.0000  -0.0000
 237 C_f :2py    0.0000   0.0280  -0.0001  -0.0000   0.0000  -0.0000  -0.0000
 238 C_f :2pz   -0.2947  -0.0000  -0.0000  -0.0232   0.2643   0.0140  -0.1862
 242 C_f :2px   -0.0000  -0.0157   0.0163  -0.0000  -0.0000   0.0000  -0.0000
 243 C_f :2py   -0.0000   0.0430   0.0043   0.0000  -0.0000   0.0000   0.0000
 245 C_f :2px    0.0000  -0.0527   0.0063  -0.0000  -0.0000   0.0000  -0.0000
 246 C_f :2py    0.0000  -0.0155   0.0277  -0.0000   0.0000   0.0000   0.0000
 256 C_f :3d1+   0.0099  -0.0000   0.0000  -0.0033  -0.0064   0.0004   0.0164
 258 C_f :3d2-   0.0000  -0.0493  -0.0617  -0.0000  -0.0000   0.0000   0.0000
 259 C_f :3d1-   0.0005   0.0000   0.0000   0.0289   0.0015  -0.0000  -0.0053
 261 C_f :3d1+  -0.0131   0.0000   0.0000   0.0344  -0.0095  -0.0000   0.0053
 262 C_f :3d2+   0.0000   0.0362  -0.0172  -0.0000   0.0000  -0.0000  -0.0000
 280 C_g :1s     0.0000  -0.0262   0.0101   0.0000   0.0000  -0.0000  -0.0000
 281 C_g :1s    -0.0000   0.0986  -0.0283   0.0000  -0.0000  -0.0000  -0.0000
 282 C_g :2px   -0.0000  -0.0171   0.0022   0.0000   0.0000  -0.0000   0.0000
 283 C_g :2py   -0.0000  -0.0273   0.0005  -0.0000  -0.0000   0.0000   0.0000
 284 C_g :2pz   -0.2586   0.0000  -0.0000  -0.1706   0.2629   0.0220   0.0978
 289 C_g :2py   -0.0000   0.0320  -0.0007   0.0000  -0.0000   0.0000   0.0000
 291 C_g :2px   -0.0000   0.0265  -0.0084   0.0000   0.0000  -0.0000   0.0000
 292 C_g :2py   -0.0000   0.0061  -0.0143   0.0000  -0.0000   0.0000   0.0000
 302 C_g :3d1+  -0.0071   0.0000   0.0000  -0.0078   0.0061   0.0008   0.0140
 304 C_g :3d2-   0.0000  -0.0097  -0.0158  -0.0000  -0.0000  -0.0000  -0.0000
 305 C_g :3d1-  -0.0193   0.0000   0.0000   0.0255  -0.0007  -0.0018  -0.0053
 307 C_g :3d1+  -0.0118   0.0000   0.0000   0.0316   0.0126  -0.0018   0.0017
 308 C_g :3d2+  -0.0000   0.0228  -0.0333   0.0000   0.0000  -0.0000  -0.0000
 326 C_h :1s     0.0000  -0.0372  -0.0018  -0.0000  -0.0000   0.0000   0.0000
 327 C_h :1s     0.0000  -0.0972   0.0319  -0.0000   0.0000  -0.0000  -0.0000
 328 C_h :2px    0.0000   0.0146  -0.0019   0.0000   0.0000   0.0000  -0.0000
 329 C_h :2py   -0.0000   0.0144  -0.0003  -0.0000  -0.0000   0.0000  -0.0000
 330 C_h :2pz   -0.2221   0.0000  -0.0000  -0.2423   0.1665   0.0182   0.2354
 334 C_h :2px   -0.0000  -0.0179  -0.0182   0.0000   0.0000  -0.0000  -0.0000
 335 C_h :2py    0.0000  -0.0128  -0.0138  -0.0000   0.0000  -0.0000  -0.0000
 337 C_h :2px    0.0000  -0.0050   0.0221   0.0000   0.0000   0.0000  -0.0000
 338 C_h :2py    0.0000  -0.0476   0.0141  -0.0000  -0.0000   0.0000  -0.0000
 348 C_h :3d1+   0.0075   0.0000   0.0000   0.0060  -0.0125  -0.0010  -0.0011
 350 C_h :3d2-  -0.0000   0.0186   0.0206   0.0000   0.0000  -0.0000  -0.0000
 351 C_h :3d1-  -0.0049   0.0000   0.0000   0.0225   0.0161   0.0018   0.0065
 353 C_h :3d1+  -0.0190   0.0000   0.0000   0.0288   0.0111  -0.0011  -0.0007
 354 C_h :3d2+  -0.0000   0.0481   0.0169  -0.0000  -0.0000   0.0000   0.0000
 372 C_i :1s     0.0000   0.0251  -0.0147  -0.0000  -0.0000   0.0000   0.0000
 373 C_i :1s     0.0000  -0.0474  -0.0580   0.0000  -0.0000  -0.0000  -0.0000
 375 C_i :2py    0.0000  -0.0141   0.0005   0.0000   0.0000  -0.0000  -0.0000
 376 C_i :2pz   -0.1728  -0.0000   0.0000  -0.3069  -0.0419   0.0038   0.2663
 381 C_i :2py    0.0000  -0.0258  -0.0211  -0.0000   0.0000   0.0000  -0.0000
 383 C_i :2px    0.0000  -0.0562  -0.0222  -0.0000  -0.0000   0.0000   0.0000
 384 C_i :2py    0.0000  -0.0480   0.0119  -0.0000   0.0000  -0.0000  -0.0000
 396 C_i :3d2-  -0.0000   0.0074   0.0274   0.0000   0.0000   0.0000   0.0000
 397 C_i :3d1-  -0.0215   0.0000   0.0000   0.0129   0.0151   0.0009   0.0013
 399 C_i :3d1+  -0.0168   0.0000   0.0000   0.0165   0.0191   0.0015   0.0156
 400 C_i :3d2+  -0.0000   0.0384   0.0036  -0.0000  -0.0000   0.0000   0.0000
 418 C_j :1s     0.0000  -0.0218  -0.0150   0.0000   0.0000  -0.0000  -0.0000
 419 C_j :1s    -0.0000   0.1883   0.0314   0.0000  -0.0000   0.0000   0.0000
 422 C_j :2pz   -0.1356  -0.0000   0.0000  -0.3049  -0.1727  -0.0077   0.1341
 426 C_j :2px   -0.0000   0.0264  -0.0083  -0.0000  -0.0000   0.0000   0.0000
 427 C_j :2py   -0.0000  -0.0026  -0.0151   0.0000   0.0000   0.0000   0.0000
 429 C_j :2px   -0.0000  -0.0096  -0.0228   0.0000  -0.0000   0.0000   0.0000
 430 C_j :2py   -0.0000   0.0391  -0.0022   0.0000   0.0000  -0.0000   0.0000
 440 C_j :3d1+   0.0044   0.0000   0.0000   0.0110  -0.0006  -0.0004  -0.0155
 442 C_j :3d2-  -0.0000  -0.0202  -0.0075   0.0000  -0.0000   0.0000   0.0000
 443 C_j :3d1-  -0.0066   0.0000   0.0000   0.0105   0.0137   0.0003   0.0150
 445 C_j :3d1+  -0.0212   0.0000   0.0000   0.0127   0.0188   0.0009   0.0122
 446 C_j :3d2+   0.0000   0.0105  -0.0053  -0.0000   0.0000  -0.0000  -0.0000
 465 C_k :1s    -0.0000  -0.0699   0.0719   0.0000   0.0000  -0.0000  -0.0000
 468 C_k :2pz   -0.0888   0.0000   0.0000  -0.2621  -0.2973  -0.0209  -0.1519
 472 C_k :2px    0.0000  -0.0186  -0.0215  -0.0000   0.0000  -0.0000  -0.0000
 475 C_k :2px    0.0000  -0.0148   0.0362  -0.0000   0.0000  -0.0000  -0.0000
 476 C_k :2py    0.0000   0.0116   0.0040  -0.0000  -0.0000   0.0000  -0.0000
 486 C_k :3d1+  -0.0019   0.0000   0.0000  -0.0053  -0.0099  -0.0009  -0.0132
 488 C_k :3d2-   0.0000  -0.0055  -0.0140  -0.0000  -0.0000   0.0000   0.0000
 489 C_k :3d1-  -0.0192   0.0000   0.0000  -0.0015   0.0105   0.0003   0.0147
 491 C_k :3d1+  -0.0153   0.0000   0.0000   0.0004   0.0084   0.0003   0.0126
 492 C_k :3d2+   0.0000  -0.0028  -0.0239  -0.0000   0.0000  -0.0000  -0.0000
 510 C_l :1s    -0.0000   0.0200   0.0278   0.0000  -0.0000   0.0000   0.0000
 511 C_l :1s     0.0000  -0.0587  -0.0891   0.0000  -0.0000   0.0000  -0.0000
 514 C_l :2pz   -0.0552   0.0000   0.0000  -0.1934  -0.2836  -0.0218  -0.2622
 518 C_l :2px    0.0000  -0.0067  -0.0192  -0.0000   0.0000  -0.0000  -0.0000
 521 C_l :2px   -0.0000  -0.0055   0.0140  -0.0000  -0.0000  -0.0000   0.0000
 522 C_l :2py   -0.0000  -0.0201  -0.0110  -0.0000  -0.0000   0.0000   0.0000
 532 C_l :3d1+   0.0023   0.0000   0.0000   0.0102   0.0129   0.0009   0.0049
 537 C_l :3d1+  -0.0178   0.0000  -0.0000  -0.0042   0.0062   0.0004   0.0148
 538 C_l :3d2+  -0.0000   0.0153   0.0128   0.0000  -0.0000   0.0000   0.0000
 557 C_m :1s     0.0000   0.0667  -0.0034  -0.0000   0.0000  -0.0000   0.0000
 560 C_m :2pz   -0.0098   0.0000  -0.0000  -0.0694  -0.1572  -0.0135  -0.2431
 567 C_m :2px    0.0000  -0.0185  -0.0100   0.0000  -0.0000   0.0000   0.0000
 568 C_m :2py    0.0000  -0.0287  -0.0040   0.0000   0.0000  -0.0000  -0.0000
 576 C_m :3d1-   0.0003   0.0000  -0.0000   0.0045   0.0090   0.0007   0.0103
 581 C_m :3d1-  -0.0141   0.0000  -0.0000  -0.0076  -0.0021   0.0000   0.0077
 584 C_m :3d2+  -0.0000   0.0144   0.0025   0.0000  -0.0000  -0.0000   0.0000
 602 C_n :1s     0.0000  -0.0137  -0.0049   0.0000   0.0000  -0.0000  -0.0000
 603 C_n :1s    -0.0000   0.0213   0.0262   0.0000  -0.0000  -0.0000  -0.0000
 606 C_n :2pz    0.0239  -0.0000  -0.0000   0.0363   0.0021  -0.0009  -0.0619
 624 C_n :3d1+   0.0009   0.0000  -0.0000   0.0057   0.0123   0.0011   0.0188
 649 N_a :1s    -0.0000  -0.0106  -0.0100   0.0000   0.0000   0.0000   0.0000
 652 N_a :2pz    0.0634   0.0000  -0.0000   0.1650   0.2180   0.0170   0.2427
 658 N_a :2pz   -0.0011  -0.0000   0.0000   0.0038   0.0073   0.0006   0.0114
 661 N_a :2pz    0.0020   0.0000  -0.0000   0.0061   0.0104   0.0007   0.0158
 692 N_b :1s    -0.0000   0.0263   0.0080   0.0000   0.0000   0.0000  -0.0000
 694 N_b :1s    -0.0000   0.1710   0.0364   0.0000  -0.0000   0.0000  -0.0000
 695 N_b :1s    -0.0000   0.3012   0.0854   0.0000  -0.0000   0.0000   0.0000
 696 N_b :2px    0.0000   0.0669   0.1158  -0.0000   0.0000  -0.0000  -0.0000
 697 N_b :2py    0.0000   0.2655   0.0584  -0.0000  -0.0000   0.0000   0.0000
 698 N_b :2pz    0.0298  -0.0000  -0.0000  -0.0301   0.0283  -0.0050  -0.0172
 702 N_b :2px   -0.0000   0.0087   0.0130   0.0000  -0.0000   0.0000  -0.0000
 703 N_b :2py   -0.0000   0.0470   0.0313   0.0000   0.0000  -0.0000  -0.0000
 704 N_b :2pz   -0.0109   0.0000   0.0000   0.0072  -0.0087  -0.0003   0.0069
 705 N_b :2px    0.0000   0.0352  -0.0851  -0.0000   0.0000  -0.0000  -0.0000
 706 N_b :2py   -0.0000   0.0668   0.0120   0.0000  -0.0000  -0.0000   0.0000
 708 N_b :3d2-   0.0000   0.0183  -0.0059  -0.0000  -0.0000   0.0000  -0.0000
 711 N_b :3d1+  -0.0010  -0.0000  -0.0000   0.0013  -0.0027   0.0187   0.0013
 712 N_b :3d2+  -0.0000  -0.0133  -0.0159   0.0000   0.0000  -0.0000   0.0000
 713 N_b :3d2-  -0.0000   0.0470  -0.0094   0.0000   0.0000   0.0000   0.0000
 714 N_b :3d1-  -0.0055  -0.0000  -0.0000   0.0071  -0.0087  -0.0216   0.0131
 716 N_b :3d1+  -0.0030   0.0000   0.0000   0.0041  -0.0082   0.0533   0.0043
 717 N_b :3d2+  -0.0000  -0.0389  -0.0378   0.0000   0.0000   0.0000  -0.0000
 718 N_b :3d2-  -0.0000  -0.0375   0.0949   0.0000  -0.0000   0.0000   0.0000
 721 N_b :3d1+  -0.0020   0.0000   0.0000   0.0019  -0.0014  -0.0163   0.0022
 722 N_b :3d2+   0.0000  -0.0156   0.0737  -0.0000  -0.0000   0.0000   0.0000
 736 N_b :4f3+   0.0000  -0.0110  -0.0026  -0.0000  -0.0000   0.0000   0.0000
 740 O_a :1s    -0.0000   0.0143  -0.0273   0.0000   0.0000  -0.0000  -0.0000
 741 O_a :1s     0.0000  -0.0223  -0.0928  -0.0000   0.0000  -0.0000  -0.0000
 742 O_a :2px   -0.0000  -0.0674  -0.2650   0.0000  -0.0000   0.0000   0.0000
 743 O_a :2py    0.0000  -0.7681   0.4107   0.0000  -0.0000   0.0000  -0.0000
 744 O_a :2pz    0.0587   0.0000  -0.0000  -0.0734   0.1258  -0.6328  -0.0819
 749 O_a :2py   -0.0000  -0.0727   0.0632  -0.0000   0.0000   0.0000   0.0000
 750 O_a :2pz    0.0049  -0.0000   0.0000  -0.0038   0.0086  -0.0613  -0.0043
 751 O_a :2px   -0.0000  -0.0054  -0.0257   0.0000  -0.0000   0.0000   0.0000
 752 O_a :2py    0.0000  -0.0530   0.0387   0.0000  -0.0000   0.0000  -0.0000
 753 O_a :2pz    0.0007   0.0000  -0.0000  -0.0025   0.0059  -0.0439  -0.0041
 759 O_a :3d2-   0.0000  -0.0112   0.0075  -0.0000   0.0000  -0.0000   0.0000
 762 O_a :3d1+   0.0023   0.0000  -0.0000  -0.0024   0.0036  -0.0165  -0.0019
 763 O_a :3d2+   0.0000  -0.0027  -0.0119  -0.0000  -0.0000   0.0000   0.0000
 764 O_a :3d2-  -0.0000  -0.0239   0.0207  -0.0000  -0.0000   0.0000   0.0000
 767 O_a :3d1+   0.0022  -0.0000   0.0000  -0.0016   0.0027  -0.0194  -0.0007
 786 O_b :1s    -0.0000  -0.0053   0.0569   0.0000   0.0000  -0.0000   0.0000
 787 O_b :1s    -0.0000  -0.0508   0.0741   0.0000  -0.0000  -0.0000   0.0000
 788 O_b :2px    0.0000  -0.0639  -0.6530  -0.0000  -0.0000   0.0000   0.0000
 789 O_b :2py    0.0000  -0.3918  -0.4926  -0.0000   0.0000   0.0000  -0.0000
 790 O_b :2pz    0.0474   0.0000   0.0000  -0.0538   0.0335   0.6496  -0.1025
 794 O_b :2px   -0.0000  -0.0141  -0.0794   0.0000   0.0000  -0.0000  -0.0000
 795 O_b :2py   -0.0000  -0.0196  -0.0618   0.0000  -0.0000  -0.0000   0.0000
 796 O_b :2pz    0.0049  -0.0000  -0.0000  -0.0039   0.0017   0.0622  -0.0074
 797 O_b :2px    0.0000  -0.0114  -0.0484  -0.0000  -0.0000   0.0000   0.0000
 798 O_b :2py    0.0000  -0.0324  -0.0224  -0.0000   0.0000   0.0000  -0.0000
 799 O_b :2pz   -0.0009   0.0000   0.0000  -0.0016  -0.0004   0.0468  -0.0059
 806 O_b :3d1-   0.0012   0.0000   0.0000  -0.0011   0.0004   0.0135  -0.0013
 808 O_b :3d1+  -0.0014  -0.0000  -0.0000   0.0014  -0.0012  -0.0103   0.0021
 809 O_b :3d2+  -0.0000   0.0036   0.0145  -0.0000   0.0000  -0.0000  -0.0000
 810 O_b :3d2-  -0.0000   0.0029  -0.0116   0.0000   0.0000  -0.0000  -0.0000
 811 O_b :3d1-   0.0020  -0.0000  -0.0000  -0.0014   0.0006   0.0179  -0.0018
 812 O_b :3d0    0.0000   0.0012   0.0101  -0.0000   0.0000   0.0000   0.0000
 814 O_b :3d2+   0.0000   0.0072   0.0313  -0.0000  -0.0000   0.0000  -0.0000
 829 H_a :1s    -0.0000  -0.0734  -0.1475   0.0000   0.0000  -0.0000  -0.0000
 830 H_a :1s     0.0000   0.0027   0.0242   0.0000  -0.0000   0.0000   0.0000
 831 H_a :1s     0.0000  -0.0043  -0.1011   0.0000  -0.0000   0.0000   0.0000
 832 H_a :1s     0.0000  -0.0234   0.0065   0.0000  -0.0000   0.0000   0.0000
 839 H_a :2px   -0.0000   0.0213  -0.0225   0.0000  -0.0000   0.0000   0.0000
 840 H_a :2py   -0.0000   0.0199   0.0244   0.0000   0.0000  -0.0000   0.0000
 841 H_a :2pz    0.0105  -0.0000  -0.0000   0.0003  -0.0018   0.0160   0.0052
 852 H_b :1s    -0.0000  -0.0206   0.0502   0.0000  -0.0000  -0.0000  -0.0000
 853 H_b :1s     0.0000  -0.0029  -0.0446  -0.0000   0.0000   0.0000   0.0000
 854 H_b :1s     0.0000  -0.1301   0.0800  -0.0000  -0.0000   0.0000   0.0000
 855 H_b :1s    -0.0000   0.0194   0.0062  -0.0000   0.0000  -0.0000   0.0000
 862 H_b :2px   -0.0000  -0.0133   0.0023   0.0000   0.0000  -0.0000  -0.0000
 863 H_b :2py    0.0000  -0.0464   0.0327   0.0000  -0.0000   0.0000  -0.0000
 875 H_c :1s     0.0000  -0.0021   0.0614  -0.0000  -0.0000   0.0000   0.0000
 877 H_c :1s    -0.0000   0.1286   0.0832   0.0000   0.0000  -0.0000   0.0000
 878 H_c :1s     0.0000  -0.0111   0.0071  -0.0000   0.0000  -0.0000  -0.0000
 885 H_c :2px   -0.0000   0.0362   0.0088   0.0000   0.0000  -0.0000   0.0000
 886 H_c :2py    0.0000  -0.0026  -0.0177   0.0000  -0.0000   0.0000  -0.0000
 898 H_d :1s     0.0000  -0.0149   0.0284  -0.0000   0.0000  -0.0000  -0.0000
 900 H_d :1s    -0.0000   0.0891   0.0453  -0.0000   0.0000   0.0000  -0.0000
 901 H_d :1s     0.0000  -0.0151  -0.0318  -0.0000  -0.0000  -0.0000  -0.0000
 908 H_d :2px   -0.0000  -0.0227   0.0038   0.0000   0.0000  -0.0000   0.0000
 909 H_d :2py   -0.0000  -0.0041   0.0137   0.0000   0.0000  -0.0000  -0.0000
 921 H_e :1s     0.0000  -0.0112   0.0076   0.0000   0.0000  -0.0000  -0.0000
 923 H_e :1s     0.0000  -0.0713  -0.0215  -0.0000  -0.0000   0.0000   0.0000
 924 H_e :1s    -0.0000   0.0381   0.0043   0.0000  -0.0000   0.0000   0.0000
 932 H_e :2py   -0.0000   0.0208  -0.0047   0.0000   0.0000  -0.0000  -0.0000
 944 H_f :1s     0.0000  -0.0127   0.0000  -0.0000  -0.0000  -0.0000  -0.0000
 946 H_f :1s     0.0000  -0.0486  -0.1154   0.0000  -0.0000   0.0000   0.0000
 947 H_f :1s    -0.0000   0.0067   0.0301   0.0000   0.0000   0.0000   0.0000
 954 H_f :2px   -0.0000  -0.0123   0.0117   0.0000   0.0000  -0.0000  -0.0000
 955 H_f :2py    0.0000  -0.0205  -0.0141   0.0000   0.0000  -0.0000   0.0000
 969 H_g :1s     0.0000  -0.0335  -0.0430   0.0000   0.0000  -0.0000  -0.0000
 970 H_g :1s     0.0000  -0.0294  -0.0057  -0.0000   0.0000  -0.0000  -0.0000
 977 H_g :2px    0.0000   0.0045  -0.0174   0.0000   0.0000  -0.0000  -0.0000
 978 H_g :2py   -0.0000   0.0121  -0.0015   0.0000  -0.0000   0.0000   0.0000
 992 H_h :1s    -0.0000   0.0607   0.0505  -0.0000  -0.0000  -0.0000  -0.0000
 993 H_h :1s     0.0000  -0.0128  -0.0211  -0.0000  -0.0000  -0.0000  -0.0000
1000 H_h :2px    0.0000  -0.0195  -0.0107   0.0000   0.0000   0.0000  -0.0000
1015 H_i :1s    -0.0000   0.0584   0.0686   0.0000  -0.0000   0.0000   0.0000
1016 H_i :1s    -0.0000   0.0279  -0.0048   0.0000  -0.0000   0.0000   0.0000
1023 H_i :2px   -0.0000   0.0172   0.0029   0.0000  -0.0000   0.0000   0.0000
1024 H_i :2py    0.0000  -0.0007  -0.0138  -0.0000   0.0000  -0.0000  -0.0000
1038 H_j :1s    -0.0000  -0.0671  -0.0224   0.0000   0.0000  -0.0000  -0.0000
1039 H_j :1s    -0.0000   0.0188   0.0197   0.0000   0.0000   0.0000   0.0000
1047 H_j :2py   -0.0000  -0.0151  -0.0038   0.0000   0.0000   0.0000  -0.0000
1061 H_k :1s     0.0000  -0.0145  -0.0535  -0.0000   0.0000  -0.0000  -0.0000
1062 H_k :1s     0.0000  -0.0258   0.0077   0.0000   0.0000  -0.0000  -0.0000
1069 H_k :2px    0.0000  -0.0010  -0.0124  -0.0000   0.0000  -0.0000  -0.0000
1084 H_l :1s    -0.0000   0.0188   0.0142  -0.0000  -0.0000   0.0000   0.0000
1085 H_l :1s     0.0000  -0.0053  -0.0172  -0.0000  -0.0000   0.0000  -0.0000
1107 H_m :1s    -0.0000   0.0085   0.0221   0.0000   0.0000   0.0000   0.0000
1108 H_m :1s    -0.0000   0.0170  -0.0025  -0.0000  -0.0000   0.0000   0.0000
1130 H_n :1s     0.0000  -0.0138   0.0052  -0.0000   0.0000  -0.0000  -0.0000
1183 H_p :2pz    0.0030  -0.0000   0.0000   0.0070   0.0091   0.0007   0.0100

    Orbital        63       64       65       66       67       68       69
   4 C_a :1s    -0.0000   0.0000   0.0000  -0.0698   0.0000   0.4651   0.2930
   5 C_a :1s    -0.0000   0.0000   0.0000  -4.0451  -0.0000   1.7539 -11.3035
   8 C_a :2pz   -0.3108  -0.2727   0.1523  -0.0000  -0.2465  -0.0000   0.0000
  10 C_a :2py   -0.0000   0.0000   0.0000  -0.0086   0.0000   0.0057  -0.0146
  12 C_a :2px   -0.0000   0.0000   0.0000   0.5044  -0.0000  -0.0552   1.4149
  13 C_a :2py   -0.0000  -0.0000  -0.0000  -0.1388  -0.0000  -0.0173  -0.6387
  14 C_a :2pz   -0.0125  -0.0171   0.0132   0.0000  -0.0441   0.0000  -0.0000
  15 C_a :2px    0.0000   0.0000  -0.0000  -0.6734   0.0000   0.8756  -2.0636
  16 C_a :2py   -0.0000   0.0000  -0.0000   0.3121   0.0000   0.5709   0.5676
  17 C_a :2pz   -0.0128  -0.0179   0.0142  -0.0000  -0.1215  -0.0000   0.0000
  23 C_a :3d2-  -0.0000  -0.0000  -0.0000   0.0220  -0.0000  -0.0167   0.0451
  24 C_a :3d1-   0.0014   0.0025  -0.0023  -0.0000   0.0184   0.0000   0.0000
  25 C_a :3d0   -0.0000   0.0000   0.0000   0.0121  -0.0000  -0.0055   0.0239
  26 C_a :3d1+  -0.0096  -0.0043   0.0003   0.0000   0.0213   0.0000   0.0000
  27 C_a :3d2+   0.0000   0.0000   0.0000  -0.0043   0.0000   0.0013  -0.0101
  28 C_a :3d2-   0.0000   0.0000  -0.0000   0.1211  -0.0000  -0.0854   0.2061
  29 C_a :3d1-  -0.0058  -0.0051   0.0025  -0.0000   0.0192  -0.0000   0.0000
  30 C_a :3d0    0.0000   0.0000   0.0000   0.0877  -0.0000  -0.0084   0.2551
  31 C_a :3d1+  -0.0137  -0.0111   0.0050   0.0000   0.0196   0.0000  -0.0000
  32 C_a :3d2+   0.0000   0.0000   0.0000  -0.1213  -0.0000   0.0556  -0.1153
  40 C_a :4f3-  -0.0000  -0.0000  -0.0000  -0.0012   0.0000  -0.0006  -0.0243
  44 C_a :4f1+  -0.0000   0.0000  -0.0000  -0.0090   0.0000   0.0040  -0.0239
  46 C_a :4f3+   0.0000  -0.0000  -0.0000  -0.0268   0.0000   0.0066  -0.0509
  50 C_b :1s     0.0000   0.0000   0.0000  -0.1350  -0.0000  -0.0678  -0.0014
  51 C_b :1s     0.0000  -0.0000  -0.0000   0.7168   0.0000  -1.8833   5.4748
  53 C_b :2py    0.0000   0.0000   0.0000  -0.0009  -0.0000  -0.0032   0.0139
  54 C_b :2pz   -0.1752  -0.0808   0.0082   0.0000   0.2647   0.0000  -0.0000
  55 C_b :2px    0.0000  -0.0000  -0.0000  -0.0160   0.0000  -0.0036  -0.0186
  58 C_b :2px   -0.0000   0.0000   0.0000   0.2245  -0.0000   0.1188   0.5336
  59 C_b :2py    0.0000   0.0000   0.0000   0.1225  -0.0000   0.1601   0.3716
  60 C_b :2pz   -0.0022  -0.0029   0.0008  -0.0000   0.0647  -0.0000   0.0000
  61 C_b :2px   -0.0000  -0.0000   0.0000  -1.4434  -0.0000  -0.7546  -3.8668
  62 C_b :2py    0.0000  -0.0000   0.0000  -1.0658  -0.0000  -0.7061  -1.6156
  63 C_b :2pz   -0.0087  -0.0088   0.0091   0.0000   0.1897   0.0000  -0.0000
  69 C_b :3d2-  -0.0000  -0.0000  -0.0000   0.0283  -0.0000  -0.0100   0.0309
  70 C_b :3d1-   0.0109   0.0158  -0.0110   0.0000   0.0149   0.0000  -0.0000
  72 C_b :3d1+   0.0195   0.0199  -0.0122  -0.0000   0.0201   0.0000   0.0000
  74 C_b :3d2-  -0.0000  -0.0000  -0.0000  -0.0722  -0.0000  -0.0120  -0.6454
  75 C_b :3d1-  -0.0060   0.0007  -0.0033   0.0000   0.0240   0.0000   0.0000
  76 C_b :3d0   -0.0000   0.0000   0.0000   0.0576   0.0000   0.0106   0.0581
  77 C_b :3d1+  -0.0045  -0.0003  -0.0019   0.0000   0.0416   0.0000  -0.0000
  78 C_b :3d2+   0.0000  -0.0000  -0.0000  -0.1408   0.0000  -0.1615  -0.6163
  86 C_b :4f3-  -0.0000   0.0000  -0.0000  -0.0028   0.0000   0.0063  -0.0231
  92 C_b :4f3+  -0.0000   0.0000  -0.0000  -0.0057   0.0000   0.0043  -0.0227
  96 C_c :1s    -0.0000   0.0000  -0.0000  -0.0429   0.0000   0.2075  -0.1498
  97 C_c :1s     0.0000   0.0000   0.0000  -2.5210  -0.0000   5.5252  -5.0006
 100 C_c :2pz    0.2050   0.3085  -0.2127  -0.0000   0.2127  -0.0000   0.0000
 101 C_c :2px    0.0000  -0.0000   0.0000   0.0131  -0.0000   0.0089   0.0234
 102 C_c :2py    0.0000  -0.0000   0.0000  -0.0020  -0.0000   0.0076   0.0159
 104 C_c :2px   -0.0000   0.0000   0.0000   0.1257  -0.0000  -0.0425   0.3023
 105 C_c :2py   -0.0000   0.0000   0.0000  -0.1107  -0.0000   0.2996  -0.3369
 106 C_c :2pz    0.0125   0.0178  -0.0156  -0.0000   0.0011   0.0000  -0.0000
 107 C_c :2px   -0.0000   0.0000  -0.0000  -1.2411   0.0000   2.7460  -1.5200
 108 C_c :2py   -0.0000  -0.0000  -0.0000  -0.5895   0.0000   1.3601  -1.1947
 109 C_c :2pz    0.0089   0.0233  -0.0268  -0.0000   0.0781  -0.0000   0.0000
 115 C_c :3d2-   0.0000  -0.0000  -0.0000   0.0281   0.0000  -0.0102   0.0355
 116 C_c :3d1-   0.0067   0.0028   0.0005  -0.0000  -0.0172   0.0000   0.0000
[...]

       No.  Residual tot.,    conf., and orb.    Bnorm      Frequency 
      ----------------------------------------------------------------
         1    8.20459D-02  0.00D+00  8.20D-02  3.61D+01    0.00000D+00
         2    8.52983D-02  0.00D+00  8.53D-02  3.74D+01    1.90000D-02
         3    9.65272D-02  0.00D+00  9.65D-02  4.20D+01    3.80000D-02

 ** RSPCTL MICROITERATION NUMBER    7

       No.  Residual tot.,    conf., and orb.    Bnorm      Frequency 
      ----------------------------------------------------------------
         1    2.91302D-02  0.00D+00  2.91D-02  3.61D+01    0.00000D+00
         2    3.03962D-02  0.00D+00  3.04D-02  3.74D+01    1.90000D-02
         3    3.47914D-02  0.00D+00  3.48D-02  4.20D+01    3.80000D-02

 *** THE REQUESTED    3 SOLUTION VECTORS CONVERGED

 Convergence of RSP solution vectors, threshold = 1.00D-03
 ---------------------------------------------------------------
 (dimension of paired reduced space:   42)
 RSP solution vector no.    1; norm of residual   8.07D-04
 RSP solution vector no.    2; norm of residual   8.12D-04
 RSP solution vector no.    3; norm of residual   8.28D-04

 *** RSPCTL MICROITERATIONS CONVERGED

@ QRLRVE: SINGLET SOLUTION FOR SYMMETRY    1  ( A  )    LABEL   YDIPLEN     FREQUENCY   0.000000D+00

@ QRLRVE:  << XDIPLEN  ; YDIPLEN  >> (   0.00000):     380.980532320    

@ QRLRVE:  << YDIPLEN  ; YDIPLEN  >> (   0.00000):     413.396301491    

@ QRLRVE:  << ZDIPLEN  ; YDIPLEN  >> (   0.00000):    8.421061090470E-16

@ QRLRVE: SINGLET SOLUTION FOR SYMMETRY    1  ( A  )    LABEL   YDIPLEN     FREQUENCY   0.190000D-01

@ QRLRVE:  << XDIPLEN  ; YDIPLEN  >> (   0.01900):     391.802641424    

@ QRLRVE:  << YDIPLEN  ; YDIPLEN  >> (   0.01900):     420.759924454    

@ QRLRVE:  << ZDIPLEN  ; YDIPLEN  >> (   0.01900):    9.349335331454E-16

@ QRLRVE: SINGLET SOLUTION FOR SYMMETRY    1  ( A  )    LABEL   YDIPLEN     FREQUENCY   0.380000D-01

@ QRLRVE:  << XDIPLEN  ; YDIPLEN  >> (   0.03800):     428.314749774    

@ QRLRVE:  << YDIPLEN  ; YDIPLEN  >> (   0.03800):     445.533386133    

@ QRLRVE:  << ZDIPLEN  ; YDIPLEN  >> (   0.03800):    1.282419673171E-15


 QRLRVE -- linear response calculation for symmetry  1  ( A  )
 QRLRVE -- operator label : ZDIPLEN 
 QRLRVE -- operator spin  :   0
 QRLRVE -- frequencies :  0.000000  0.019000  0.038000



 ---  SOLVING SETS OF LINEAR EQUATIONS FOR LINEAR RESPONSE PROPERTIES ---

 Operator symmetry = 1  ( A  ); triplet =   F


 ** RSPCTL MICROITERATION NUMBER    1

       No.  Residual tot.,    conf., and orb.    Bnorm      Frequency 
      ----------------------------------------------------------------
         1    3.44842D+00  0.00D+00  3.45D+00  8.61D+00    0.00000D+00
         2    3.45127D+00  0.00D+00  3.45D+00  8.64D+00    1.90000D-02
         3    3.45988D+00  0.00D+00  3.46D+00  8.71D+00    3.80000D-02

 ** RSPCTL MICROITERATION NUMBER    2

       No.  Residual tot.,    conf., and orb.    Bnorm      Frequency 
      ----------------------------------------------------------------
         1    8.56655D-01  0.00D+00  8.57D-01  9.02D+00    0.00000D+00
         2    8.58748D-01  0.00D+00  8.59D-01  9.05D+00    1.90000D-02
         3    8.65096D-01  0.00D+00  8.65D-01  9.14D+00    3.80000D-02

 ** RSPCTL MICROITERATION NUMBER    3

       No.  Residual tot.,    conf., and orb.    Bnorm      Frequency 
      ----------------------------------------------------------------
         1    1.73764D-01  0.00D+00  1.74D-01  9.06D+00    0.00000D+00
         2    1.74850D-01  0.00D+00  1.75D-01  9.08D+00    1.90000D-02
         3    1.78164D-01  0.00D+00  1.78D-01  9.17D+00    3.80000D-02

 ** RSPCTL MICROITERATION NUMBER    4

       No.  Residual tot.,    conf., and orb.    Bnorm      Frequency 
      ----------------------------------------------------------------
         1    5.16308D-02  0.00D+00  5.16D-02  9.06D+00    0.00000D+00
         2    5.24067D-02  0.00D+00  5.24D-02  9.09D+00    1.90000D-02
         3    5.48427D-02  0.00D+00  5.48D-02  9.18D+00    3.80000D-02

 ** RSPCTL MICROITERATION NUMBER    5

       No.  Residual tot.,    conf., and orb.    Bnorm      Frequency 
      ----------------------------------------------------------------
         1    1.89112D-02  0.00D+00  1.89D-02  9.06D+00    0.00000D+00
         2    1.94394D-02  0.00D+00  1.94D-02  9.09D+00    1.90000D-02
         3    2.11068D-02  0.00D+00  2.11D-02  9.18D+00    3.80000D-02

 ** RSPCTL MICROITERATION NUMBER    6

       No.  Residual tot.,    conf., and orb.    Bnorm      Frequency 
      ----------------------------------------------------------------
         1    7.02879D-03  0.00D+00  7.03D-03  9.06D+00    0.00000D+00
         2    7.29994D-03  0.00D+00  7.30D-03  9.09D+00    1.90000D-02
         3    8.16804D-03  0.00D+00  8.17D-03  9.18D+00    3.80000D-02

 *** THE REQUESTED    3 SOLUTION VECTORS CONVERGED

 Convergence of RSP solution vectors, threshold = 1.00D-03
 ---------------------------------------------------------------
 (dimension of paired reduced space:   36)
 RSP solution vector no.    1; norm of residual   7.76D-04
 RSP solution vector no.    2; norm of residual   8.03D-04
 RSP solution vector no.    3; norm of residual   8.90D-04

 *** RSPCTL MICROITERATIONS CONVERGED

@ QRLRVE: SINGLET SOLUTION FOR SYMMETRY    1  ( A  )    LABEL   ZDIPLEN     FREQUENCY   0.000000D+00

@ QRLRVE:  << XDIPLEN  ; ZDIPLEN  >> (   0.00000):   -1.056465086902E-14

@ QRLRVE:  << YDIPLEN  ; ZDIPLEN  >> (   0.00000):    2.092461884666E-15

@ QRLRVE:  << ZDIPLEN  ; ZDIPLEN  >> (   0.00000):     118.124271483    

@ QRLRVE: SINGLET SOLUTION FOR SYMMETRY    1  ( A  )    LABEL   ZDIPLEN     FREQUENCY   0.190000D-01

@ QRLRVE:  << XDIPLEN  ; ZDIPLEN  >> (   0.01900):   -1.107039462472E-14

@ QRLRVE:  << YDIPLEN  ; ZDIPLEN  >> (   0.01900):    2.300737878186E-15

@ QRLRVE:  << ZDIPLEN  ; ZDIPLEN  >> (   0.01900):     118.273847822    

@ QRLRVE: SINGLET SOLUTION FOR SYMMETRY    1  ( A  )    LABEL   ZDIPLEN     FREQUENCY   0.380000D-01

@ QRLRVE:  << XDIPLEN  ; ZDIPLEN  >> (   0.03800):   -1.271098821639E-14

@ QRLRVE:  << YDIPLEN  ; ZDIPLEN  >> (   0.03800):    2.981509384753E-15

@ QRLRVE:  << ZDIPLEN  ; ZDIPLEN  >> (   0.03800):     118.726740054    
 
 ======================================================================
 ---  L I N E A R   R E S P O N S E   F U N C T I O N S --- 
 ======================================================================

 The -<<A;B>>(omega_b) functions from vectors generated
 in a *QUADRA calculation of <<A;B,C>>(omega_b,omega_c)

 Note: the accuracy of off-diagonal elements will be linear
 in the convergence threshold THCLR =  1.00D-03


 Perturbation symmetry.     KSYMOP:           1
 Perturbation spin symmetry.TRPLET:           F
 Orbital variables.         KZWOPT:       73190
 Configuration variables.   KZCONF:           0
 Total number of variables. KZVAR :       73190

@ Singlet linear response function in a.u.

@ A operator, symmetry, frequency:   XDIPLEN    1 -0.000000
@ B operator, symmetry, frequency:   XDIPLEN    1  0.000000

@ Value of linear response -<<A;B>>(omega):     748.678269263828

@ Singlet linear response function in a.u.

@ A operator, symmetry, frequency:   YDIPLEN    1 -0.000000
@ B operator, symmetry, frequency:   XDIPLEN    1  0.000000

@ Value of linear response -<<A;B>>(omega):     380.969406591092

@ Singlet linear response function in a.u.

@ A operator, symmetry, frequency:   ZDIPLEN    1 -0.000000
@ B operator, symmetry, frequency:   XDIPLEN    1  0.000000

@ Value of linear response -<<A;B>>(omega):      -0.000000000000

@ Singlet linear response function in a.u.

@ A operator, symmetry, frequency:   XDIPLEN    1 -0.019000
@ B operator, symmetry, frequency:   XDIPLEN    1  0.019000

@ Value of linear response -<<A;B>>(omega):     765.397620375061

@ Singlet linear response function in a.u.

@ A operator, symmetry, frequency:   YDIPLEN    1 -0.019000
@ B operator, symmetry, frequency:   XDIPLEN    1  0.019000

@ Value of linear response -<<A;B>>(omega):     391.790840767889

@ Singlet linear response function in a.u.

@ A operator, symmetry, frequency:   ZDIPLEN    1 -0.019000
@ B operator, symmetry, frequency:   XDIPLEN    1  0.019000

@ Value of linear response -<<A;B>>(omega):      -0.000000000000

@ Singlet linear response function in a.u.

@ A operator, symmetry, frequency:   XDIPLEN    1 -0.000000
@ B operator, symmetry, frequency:   YDIPLEN    1  0.000000

@ Value of linear response -<<A;B>>(omega):     380.980532320086

@ Singlet linear response function in a.u.

@ A operator, symmetry, frequency:   YDIPLEN    1 -0.000000
@ B operator, symmetry, frequency:   YDIPLEN    1  0.000000

@ Value of linear response -<<A;B>>(omega):     413.396301491120

@ Singlet linear response function in a.u.

@ A operator, symmetry, frequency:   ZDIPLEN    1 -0.000000
@ B operator, symmetry, frequency:   YDIPLEN    1  0.000000

@ Value of linear response -<<A;B>>(omega):       0.000000000000

@ Singlet linear response function in a.u.

@ A operator, symmetry, frequency:   XDIPLEN    1 -0.019000
@ B operator, symmetry, frequency:   YDIPLEN    1  0.019000

@ Value of linear response -<<A;B>>(omega):     391.802641423842

@ Singlet linear response function in a.u.

@ A operator, symmetry, frequency:   YDIPLEN    1 -0.019000
@ B operator, symmetry, frequency:   YDIPLEN    1  0.019000

@ Value of linear response -<<A;B>>(omega):     420.759924454479

@ Singlet linear response function in a.u.

@ A operator, symmetry, frequency:   ZDIPLEN    1 -0.019000
@ B operator, symmetry, frequency:   YDIPLEN    1  0.019000

@ Value of linear response -<<A;B>>(omega):       0.000000000000

@ Singlet linear response function in a.u.

@ A operator, symmetry, frequency:   XDIPLEN    1 -0.000000
@ B operator, symmetry, frequency:   ZDIPLEN    1  0.000000

@ Value of linear response -<<A;B>>(omega):      -0.000000000000

@ Singlet linear response function in a.u.

@ A operator, symmetry, frequency:   YDIPLEN    1 -0.000000
@ B operator, symmetry, frequency:   ZDIPLEN    1  0.000000

@ Value of linear response -<<A;B>>(omega):       0.000000000000

@ Singlet linear response function in a.u.

@ A operator, symmetry, frequency:   ZDIPLEN    1 -0.000000
@ B operator, symmetry, frequency:   ZDIPLEN    1  0.000000

@ Value of linear response -<<A;B>>(omega):     118.124271482687

@ Singlet linear response function in a.u.

@ A operator, symmetry, frequency:   XDIPLEN    1 -0.019000
@ B operator, symmetry, frequency:   ZDIPLEN    1  0.019000

@ Value of linear response -<<A;B>>(omega):      -0.000000000000

@ Singlet linear response function in a.u.

@ A operator, symmetry, frequency:   YDIPLEN    1 -0.019000
@ B operator, symmetry, frequency:   ZDIPLEN    1  0.019000

@ Value of linear response -<<A;B>>(omega):       0.000000000000

@ Singlet linear response function in a.u.

@ A operator, symmetry, frequency:   ZDIPLEN    1 -0.019000
@ B operator, symmetry, frequency:   ZDIPLEN    1  0.019000

@ Value of linear response -<<A;B>>(omega):     118.273847822279


  Results from quadratic response calculation
 --------------------------------------------

@ B-freq = 0.000000  C-freq = 0.000000     beta(X;X,X) =  12366.22535698
@ B-freq = 0.000000  C-freq = 0.000000     beta(Y;X,X) =  12452.17480147
@ B-freq = 0.000000  C-freq = 0.000000     beta(Z;X,X) =     -0.00000000
@ B-freq = 0.019000  C-freq = 0.000000     beta(X;X,X) =  13240.82732919
@ B-freq = 0.019000  C-freq = 0.000000     beta(Y;X,X) =  13173.33725129
@ B-freq = 0.019000  C-freq = 0.000000     beta(Z;X,X) =     -0.00000000
@ B-freq = 0.000000  C-freq = 0.000000     beta(X;Y,X) = beta(Y,X,X)
@ B-freq = 0.000000  C-freq = 0.000000     beta(X;Y,X) =  12452.17340036
@ B-freq = 0.000000  C-freq = 0.000000     beta(Y;Y,X) =  11488.00207967
@ B-freq = 0.000000  C-freq = 0.000000     beta(Z;Y,X) =     -0.00000000
@ B-freq = 0.019000  C-freq = 0.000000     beta(X;Y,X) =  13173.33577662
@ B-freq = 0.019000  C-freq = 0.000000     beta(Y;Y,X) =  12065.00750849
@ B-freq = 0.019000  C-freq = 0.000000     beta(Z;Y,X) =     -0.00000000
@ B-freq = 0.000000  C-freq = 0.000000     beta(X;Z,X) = beta(Z,X,X)
@ B-freq = 0.000000  C-freq = 0.000000     beta(Y;Z,X) = beta(Z,Y,X)
@ B-freq = 0.000000  C-freq = 0.000000     beta(X;Z,X) =     -0.00000000
@ B-freq = 0.000000  C-freq = 0.000000     beta(Y;Z,X) =     -0.00000000
@ B-freq = 0.000000  C-freq = 0.000000     beta(Z;Z,X) =    -30.38380605
@ B-freq = 0.019000  C-freq = 0.000000     beta(X;Z,X) =     -0.00000000
@ B-freq = 0.019000  C-freq = 0.000000     beta(Y;Z,X) =     -0.00000000
@ B-freq = 0.019000  C-freq = 0.000000     beta(Z;Z,X) =    -30.93383399
@ B-freq = 0.000000  C-freq = 0.019000     beta(X;X,X) = beta(X,X,X)
@ B-freq = 0.000000  C-freq = 0.019000     beta(Y;X,X) = beta(Y,X,X)
@ B-freq = 0.000000  C-freq = 0.019000     beta(Z;X,X) = beta(Z,X,X)
@ B-freq = 0.019000  C-freq = 0.019000     beta(X;X,X) =  15256.50276634
@ B-freq = 0.019000  C-freq = 0.019000     beta(Y;X,X) =  14682.38136962
@ B-freq = 0.019000  C-freq = 0.019000     beta(Z;X,X) =     -0.00000000
@ B-freq = 0.000000  C-freq = 0.019000     beta(X;Y,X) =  13293.54481478
@ B-freq = 0.000000  C-freq = 0.019000     beta(Y;Y,X) =  12154.30174890
@ B-freq = 0.000000  C-freq = 0.019000     beta(Z;Y,X) =     -0.00000000
@ B-freq = 0.019000  C-freq = 0.019000     beta(X;Y,X) =  15092.92828680
@ B-freq = 0.019000  C-freq = 0.019000     beta(Y;Y,X) =  13472.74632772
@ B-freq = 0.019000  C-freq = 0.019000     beta(Z;Y,X) =     -0.00000000
@ B-freq = 0.000000  C-freq = 0.019000     beta(X;Z,X) =     -0.00000000
@ B-freq = 0.000000  C-freq = 0.019000     beta(Y;Z,X) =     -0.00000000
@ B-freq = 0.000000  C-freq = 0.019000     beta(Z;Z,X) =    -31.02341002
@ B-freq = 0.019000  C-freq = 0.019000     beta(X;Z,X) =     -0.00000000
@ B-freq = 0.019000  C-freq = 0.019000     beta(Y;Z,X) =     -0.00000000
@ B-freq = 0.019000  C-freq = 0.019000     beta(Z;Z,X) =    -32.17937674
@ B-freq = 0.000000  C-freq = 0.000000     beta(X;X,Y) = beta(Y,X,X)
@ B-freq = 0.000000  C-freq = 0.000000     beta(Y;X,Y) = beta(Y,Y,X)
@ B-freq = 0.000000  C-freq = 0.000000     beta(Z;X,Y) = beta(Z,Y,X)
@ B-freq = 0.019000  C-freq = 0.000000     beta(X;X,Y) = beta(X,Y,X)
@ B-freq = 0.019000  C-freq = 0.000000     beta(Y;X,Y) = beta(Y,Y,X)
@ B-freq = 0.019000  C-freq = 0.000000     beta(Z;X,Y) = beta(Z,Y,X)
@ B-freq = 0.000000  C-freq = 0.000000     beta(X;Y,Y) = beta(Y,Y,X)
@ B-freq = 0.000000  C-freq = 0.000000     beta(X;Y,Y) =  11488.00116568
@ B-freq = 0.000000  C-freq = 0.000000     beta(Y;Y,Y) =   9991.17569343
@ B-freq = 0.000000  C-freq = 0.000000     beta(Z;Y,Y) =     -0.00000000
@ B-freq = 0.019000  C-freq = 0.000000     beta(X;Y,Y) =  12154.30078733
@ B-freq = 0.019000  C-freq = 0.000000     beta(Y;Y,Y) =  10508.68091209
@ B-freq = 0.019000  C-freq = 0.000000     beta(Z;Y,Y) =     -0.00000000
@ B-freq = 0.000000  C-freq = 0.000000     beta(X;Z,Y) = beta(Z,Y,X)
@ B-freq = 0.000000  C-freq = 0.000000     beta(Y;Z,Y) = beta(Z,Y,Y)
@ B-freq = 0.000000  C-freq = 0.000000     beta(X;Z,Y) =     -0.00000000
@ B-freq = 0.000000  C-freq = 0.000000     beta(Y;Z,Y) =     -0.00000000
@ B-freq = 0.000000  C-freq = 0.000000     beta(Z;Z,Y) =    -28.92977795
@ B-freq = 0.019000  C-freq = 0.000000     beta(X;Z,Y) =     -0.00000000
@ B-freq = 0.019000  C-freq = 0.000000     beta(Y;Z,Y) =     -0.00000000
@ B-freq = 0.019000  C-freq = 0.000000     beta(Z;Z,Y) =    -29.33069972
@ B-freq = 0.000000  C-freq = 0.019000     beta(X;X,Y) = beta(X,Y,X)
@ B-freq = 0.000000  C-freq = 0.019000     beta(Y;X,Y) = beta(Y,Y,X)
@ B-freq = 0.000000  C-freq = 0.019000     beta(Z;X,Y) = beta(Z,Y,X)
@ B-freq = 0.019000  C-freq = 0.019000     beta(X;X,Y) = beta(X,Y,X)
@ B-freq = 0.019000  C-freq = 0.019000     beta(Y;X,Y) = beta(Y,Y,X)
@ B-freq = 0.019000  C-freq = 0.019000     beta(Z;X,Y) = beta(Z,Y,X)
@ B-freq = 0.000000  C-freq = 0.019000     beta(X;Y,Y) = beta(X,Y,Y)
@ B-freq = 0.000000  C-freq = 0.019000     beta(Y;Y,Y) = beta(Y,Y,Y)
@ B-freq = 0.000000  C-freq = 0.019000     beta(Z;Y,Y) = beta(Z,Y,Y)
@ B-freq = 0.019000  C-freq = 0.019000     beta(X;Y,Y) =  13778.17581896
@ B-freq = 0.019000  C-freq = 0.019000     beta(Y;Y,Y) =  11682.96523314
@ B-freq = 0.019000  C-freq = 0.019000     beta(Z;Y,Y) =     -0.00000000
@ B-freq = 0.000000  C-freq = 0.019000     beta(X;Z,Y) =     -0.00000000
@ B-freq = 0.000000  C-freq = 0.019000     beta(Y;Z,Y) =     -0.00000000
@ B-freq = 0.000000  C-freq = 0.019000     beta(Z;Z,Y) =    -29.38352681
@ B-freq = 0.019000  C-freq = 0.019000     beta(X;Z,Y) =     -0.00000000
@ B-freq = 0.019000  C-freq = 0.019000     beta(Y;Z,Y) =     -0.00000000
@ B-freq = 0.019000  C-freq = 0.019000     beta(Z;Z,Y) =    -30.22248331
@ B-freq = 0.000000  C-freq = 0.000000     beta(X;X,Z) = beta(Z,X,X)
@ B-freq = 0.000000  C-freq = 0.000000     beta(Y;X,Z) = beta(Z,Y,X)
@ B-freq = 0.000000  C-freq = 0.000000     beta(Z;X,Z) = beta(Z,Z,X)
@ B-freq = 0.019000  C-freq = 0.000000     beta(X;X,Z) = beta(X,Z,X)
@ B-freq = 0.019000  C-freq = 0.000000     beta(Y;X,Z) = beta(Y,Z,X)
@ B-freq = 0.019000  C-freq = 0.000000     beta(Z;X,Z) = beta(Z,Z,X)
@ B-freq = 0.000000  C-freq = 0.000000     beta(X;Y,Z) = beta(Z,Y,X)
@ B-freq = 0.000000  C-freq = 0.000000     beta(Y;Y,Z) = beta(Z,Y,Y)
@ B-freq = 0.000000  C-freq = 0.000000     beta(Z;Y,Z) = beta(Z,Z,Y)
@ B-freq = 0.019000  C-freq = 0.000000     beta(X;Y,Z) = beta(X,Z,Y)
@ B-freq = 0.019000  C-freq = 0.000000     beta(Y;Y,Z) = beta(Y,Z,Y)
@ B-freq = 0.019000  C-freq = 0.000000     beta(Z;Y,Z) = beta(Z,Z,Y)
@ B-freq = 0.000000  C-freq = 0.000000     beta(X;Z,Z) = beta(Z,Z,X)
@ B-freq = 0.000000  C-freq = 0.000000     beta(Y;Z,Z) = beta(Z,Z,Y)
@ B-freq = 0.000000  C-freq = 0.000000     beta(X;Z,Z) =    -30.38379166
@ B-freq = 0.000000  C-freq = 0.000000     beta(Y;Z,Z) =    -28.92976703
@ B-freq = 0.000000  C-freq = 0.000000     beta(Z;Z,Z) =     -0.00000000
@ B-freq = 0.019000  C-freq = 0.000000     beta(X;Z,Z) =    -31.02339487
@ B-freq = 0.019000  C-freq = 0.000000     beta(Y;Z,Z) =    -29.38351536
@ B-freq = 0.019000  C-freq = 0.000000     beta(Z;Z,Z) =     -0.00000000
@ B-freq = 0.000000  C-freq = 0.019000     beta(X;X,Z) = beta(X,Z,X)
@ B-freq = 0.000000  C-freq = 0.019000     beta(Y;X,Z) = beta(Y,Z,X)
@ B-freq = 0.000000  C-freq = 0.019000     beta(Z;X,Z) = beta(Z,Z,X)
@ B-freq = 0.019000  C-freq = 0.019000     beta(X;X,Z) = beta(X,Z,X)
@ B-freq = 0.019000  C-freq = 0.019000     beta(Y;X,Z) = beta(Y,Z,X)
@ B-freq = 0.019000  C-freq = 0.019000     beta(Z;X,Z) = beta(Z,Z,X)
@ B-freq = 0.000000  C-freq = 0.019000     beta(X;Y,Z) = beta(X,Z,Y)
@ B-freq = 0.000000  C-freq = 0.019000     beta(Y;Y,Z) = beta(Y,Z,Y)
@ B-freq = 0.000000  C-freq = 0.019000     beta(Z;Y,Z) = beta(Z,Z,Y)
@ B-freq = 0.019000  C-freq = 0.019000     beta(X;Y,Z) = beta(X,Z,Y)
@ B-freq = 0.019000  C-freq = 0.019000     beta(Y;Y,Z) = beta(Y,Z,Y)
@ B-freq = 0.019000  C-freq = 0.019000     beta(Z;Y,Z) = beta(Z,Z,Y)
@ B-freq = 0.000000  C-freq = 0.019000     beta(X;Z,Z) = beta(X,Z,Z)
@ B-freq = 0.000000  C-freq = 0.019000     beta(Y;Z,Z) = beta(Y,Z,Z)
@ B-freq = 0.000000  C-freq = 0.019000     beta(Z;Z,Z) = beta(Z,Z,Z)
@ B-freq = 0.019000  C-freq = 0.019000     beta(X;Z,Z) =    -32.52061949
@ B-freq = 0.019000  C-freq = 0.019000     beta(Y;Z,Z) =    -30.42793355
@ B-freq = 0.019000  C-freq = 0.019000     beta(Z;Z,Z) =     -0.00000000

  Total CPU  time used in RESPONSE: 26 minutes 23 seconds
  Total wall time used in RESPONSE: 26 minutes 33 seconds


                   .-------------------------------------------.
                   | End of Dynamic Property Section (RESPONS) |
                   `-------------------------------------------'

  Total CPU  time used in DALTON: 35 minutes 12 seconds
  Total wall time used in DALTON: 35 minutes 25 seconds

 
     Date and time (Linux)  : Tue May 27 19:44:51 2025
     Host name              : xm023                                   
