

     ************************************************************************
     *************** Dalton - An Electronic Structure Program ***************
     ************************************************************************

    This is output from DALTON release Dalton2020.0 (2020)
         ( Web site: http://daltonprogram.org )

   ----------------------------------------------------------------------------

    NOTE:
     
    Dalton is an experimental code for the evaluation of molecular
    properties using (MC)SCF, DFT, CI, and CC wave functions.
    The authors accept no responsibility for the performance of
    the code or for the correctness of the results.
     
    The code (in whole or part) is provided under a licence and
    is not to be reproduced for further distribution without
    the written permission of the authors or their representatives.
     
    See the home page "http://daltonprogram.org" for further information.
     
    If results obtained with this code are published,
    the appropriate citations would be both of:
     
       K. Aidas, C. Angeli, K. L. Bak, V. Bakken, R. Bast,
       L. Boman, O. Christiansen, R. Cimiraglia, S. Coriani,
       P. Dahle, E. K. Dalskov, U. Ekstroem,
       T. Enevoldsen, J. J. Eriksen, P. Ettenhuber, B. Fernandez,
       L. Ferrighi, H. Fliegl, L. Frediani, K. Hald, A. Halkier,
       C. Haettig, H. Heiberg, T. Helgaker, A. C. Hennum,
       H. Hettema, E. Hjertenaes, S. Hoest, I.-M. Hoeyvik,
       M. F. Iozzi, B. Jansik, H. J. Aa. Jensen, D. Jonsson,
       P. Joergensen, J. Kauczor, S. Kirpekar,
       T. Kjaergaard, W. Klopper, S. Knecht, R. Kobayashi, H. Koch,
       J. Kongsted, A. Krapp, K. Kristensen, A. Ligabue,
       O. B. Lutnaes, J. I. Melo, K. V. Mikkelsen, R. H. Myhre,
       C. Neiss, C. B. Nielsen, P. Norman, J. Olsen,
       J. M. H. Olsen, A. Osted, M. J. Packer, F. Pawlowski,
       T. B. Pedersen, P. F. Provasi, S. Reine, Z. Rinkevicius,
       T. A. Ruden, K. Ruud, V. Rybkin, P. Salek, C. C. M. Samson,
       A. Sanchez de Meras, T. Saue, S. P. A. Sauer,
       B. Schimmelpfennig, K. Sneskov, A. H. Steindal,
       K. O. Sylvester-Hvid, P. R. Taylor, A. M. Teale,
       E. I. Tellgren, D. P. Tew, A. J. Thorvaldsen, L. Thoegersen,
       O. Vahtras, M. A. Watson, D. J. D. Wilson, M. Ziolkowski
       and H. Agren,
       "The Dalton quantum chemistry program system",
       WIREs Comput. Mol. Sci. 2014, 4:269–284 (doi: 10.1002/wcms.1172)
     
    and
     
       Dalton, a molecular electronic structure program,
       Release Dalton2020.0 (2020), see http://daltonprogram.org
   ----------------------------------------------------------------------------

    Authors in alphabetical order (Major contribution(s) in parenthesis):

  Kestutis Aidas,           Vilnius University,           Lithuania   (QM/MM)
  Celestino Angeli,         University of Ferrara,        Italy       (NEVPT2)
  Keld L. Bak,              UNI-C,                        Denmark     (AOSOPPA, non-adiabatic coupling, magnetic properties)
  Vebjoern Bakken,          University of Oslo,           Norway      (DALTON; geometry optimizer, symmetry detection)
  Radovan Bast,             UiT The Arctic U. of Norway,  Norway      (DALTON installation and execution frameworks)
  Pablo Baudin,             University of Valencia,       Spain       (Cholesky excitation energies)
  Linus Boman,              NTNU,                         Norway      (Cholesky decomposition and subsystems)
  Bruno N. Cabral Tenorio,  Technical Univ. of Denmark,   Denmark     (Lanczos-based CC methods)
  Ove Christiansen,         Aarhus University,            Denmark     (CC module)
  Renzo Cimiraglia,         University of Ferrara,        Italy       (NEVPT2)
  Sonia Coriani,            Technical Univ. of Denmark,   Denmark     (CC and RESPONS modules)
  Janusz Cukras,            University of Warsaw,         Poland      (MChD in RESPONS)
  Paal Dahle,               University of Oslo,           Norway      (Parallelization)
  Erik K. Dalskov,          UNI-C,                        Denmark     (SOPPA)
  Thomas Enevoldsen,        Univ. of Southern Denmark,    Denmark     (SOPPA)
  Janus J. Eriksen,         Aarhus University,            Denmark     (Polarizable embedding, TDA)
  Rasmus Faber,             Technical Univ. of Denmark,   Denmark     (Vib.avg. NMR w. SOPPA, parallel AO-SOPPA, CVS-CC and EOMCC)
  Tobias Fahleson,          KTH Stockholm,                Sweden      (Damped cubic response)
  Berta Fernandez,          U. of Santiago de Compostela, Spain       (Doublet spin, ESR in RESPONS)
  Lara Ferrighi,            Aarhus University,            Denmark     (PCM Cubic response)
  Heike Fliegl,             University of Oslo,           Norway      (CCSD(R12))
  Luca Frediani,            UiT The Arctic U. of Norway,  Norway      (PCM)
  Emmanuel Fromager,        Univ. Strasbourg,             France      (MC-srDFT)
  Bin Gao,                  UiT The Arctic U. of Norway,  Norway      (Gen1Int library)
  Andre S. P. Gomes,        CNRS/Universite de Lille,     France      (Frozen density embedding)
  Christof Haettig,         Ruhr-University Bochum,       Germany     (CC module)
  Kasper Hald,              Aarhus University,            Denmark     (CC module)
  Asger Halkier,            Aarhus University,            Denmark     (CC module)
  Frederik Beyer Hansen,    University of Copenhagen,     Denmark     (Parallel AO-SOPPA)
  Erik D. Hedegaard,        Univ. of Southern Denmark,    Denmark     (Polarizable embedding, QM/MM, and MC-srDFT)
  Hanne Heiberg,            University of Oslo,           Norway      (Geometry analysis, selected one-electron integrals)
  Trygve Helgaker,          University of Oslo,           Norway      (DALTON; ABACUS, ERI, DFT modules, London, and much more)
  Alf Christian Hennum,     University of Oslo,           Norway      (Parity violation)
  Hinne Hettema,            University of Auckland,       New Zealand (Quadratic response in RESPONS; SIRIUS supersymmetry)
  Eirik Hjertenaes,         NTNU,                         Norway      (Cholesky decomposition)
  Pi A. B. Haase,           University of Copenhagen,     Denmark     (Triplet AO-SOPPA)
  Maria Francesca Iozzi,    University of Oslo,           Norway      (RPA)
  Christoph Jacob           TU Braunschweig               Germany     (Frozen density embedding)
  Brano Jansik              Technical Univ. of Ostrava    Czech Rep.  (DFT cubic response)
  Hans Joergen Aa. Jensen,  Univ. of Southern Denmark,    Denmark     (DALTON; SIRIUS, RESPONS, ABACUS, MC-srDFT, and much more)
  Dan Jonsson,              UiT The Arctic U. of Norway,  Norway      (Cubic response in RESPONS module)
  Poul Joergensen,          Aarhus University,            Denmark     (RESPONS, ABACUS, and CC modules)
  Maciej Kaminski,          University of Warsaw,         Poland      (CPPh in RESPONS)
  Joanna Kauczor,           Linkoeping University,        Sweden      (Complex polarization propagator (CPP) module)
  Sheela Kirpekar,          Univ. of Southern Denmark,    Denmark     (Mass-velocity & Darwin integrals)
  Erik Kjellgren,           Univ. of Southern Denmark,    Denmark     (MC-srDFT)
  Wim Klopper,              KIT Karlsruhe,                Germany     (R12 code in CC, SIRIUS, and ABACUS modules)
  Stefan Knecht,            ETH Zurich,                   Switzerland (Parallel CI and MCSCF, MC-srDFT)
  Rika Kobayashi,           Australian National Univ.,    Australia   (DIIS in CC, London in MCSCF)
  Henrik Koch,              NTNU,                         Norway      (CC module, Cholesky decomposition)
  Jacob Kongsted,           Univ. of Southern Denmark,    Denmark     (Polarizable embedding, polarizable density embedding, QM/MM)
  Andrea Ligabue,           University of Modena,         Italy       (CTOCD, AOSOPPA)
  Nanna H. List             Univ. of Southern Denmark,    Denmark     (Polarizable embedding)
  Ola B. Lutnaes,           University of Oslo,           Norway      (DFT Hessian)
  Juan I. Melo,             University of Buenos Aires,   Argentina   (LRESC, Relativistic Effects on NMR Shieldings)
  Kurt V. Mikkelsen,        University of Copenhagen,     Denmark     (MC-SCRF and QM/MM)
  Rolf H. Myhre,            NTNU,                         Norway      (Subsystems and CC3)
  Christian Neiss,          Univ. Erlangen-Nuernberg,     Germany     (CCSD(R12))
  Christian B. Nielsen,     University of Copenhagen,     Denmark     (QM/MM)
  Patrick Norman,           KTH Stockholm,                Sweden      (Cubic response and complex frequency response in RESPONS)
  Jeppe Olsen,              Aarhus University,            Denmark     (SIRIUS CI/density modules)
  Jogvan Magnus H. Olsen,   Aarhus University,            Denmark     (Polarizable embedding and polarizable density embedding)
  Anders Osted,             Copenhagen University,        Denmark     (QM/MM)
  Martin J. Packer,         University of Sheffield,      UK          (SOPPA)
  Filip Pawlowski,          Kazimierz Wielki University,  Poland      (CC3)
  Morten N. Pedersen,       Univ. of Southern Denmark,    Denmark     (Polarizable embedding)
  Thomas B. Pedersen,       University of Oslo,           Norway      (Cholesky decomposition)
  Patricio F. Provasi,      University of Northeastern,   Argentina   (Analysis of coupling constants in localized orbitals)
  Peter Reinholdt,          Univ. of Southern Denmark,    Denmark     (Polarizable embedding and polarizable density embedding)
  Zilvinas Rinkevicius,     KTH Stockholm,                Sweden      (open-shell DFT, ESR)
  Elias Rudberg,            KTH Stockholm,                Sweden      (DFT grid and basis info)
  Torgeir A. Ruden,         University of Oslo,           Norway      (Numerical derivatives in ABACUS)
  Kenneth Ruud,             UiT The Arctic U. of Norway,  Norway      (DALTON; ABACUS magnetic properties and much more)
  Pawel Salek,              KTH Stockholm,                Sweden      (DALTON; DFT code)
  Claire C. M. Samson       University of Karlsruhe       Germany     (Boys localization, r12 integrals in ERI)
  Alfredo Sanchez de Meras, University of Valencia,       Spain       (CC module, Cholesky decomposition)
  Trond Saue,               Paul Sabatier University,     France      (direct Fock matrix construction)
  Stephan P. A. Sauer,      University of Copenhagen,     Denmark     (SOPPA(CCSD), SOPPA prop., AOSOPPA, vibrational g-factors)
  Bernd Schimmelpfennig,    Forschungszentrum Karlsruhe,  Germany     (AMFI module)
  Anna K. Schnack-Petersen, University of Copenhagen,     Denmark     (RPA(D) and HRPA(D) properties in AOSOPPA)
  Kristian Sneskov,         Aarhus University,            Denmark     (Polarizable embedding, QM/MM)
  Arnfinn H. Steindal,      UiT The Arctic U. of Norway,  Norway      (parallel QM/MM, polarizable embedding)
  Casper Steinmann,         Aalborg University,           Denmark     (QFIT, polarizable embedding)
  K. O. Sylvester-Hvid,     University of Copenhagen,     Denmark     (MC-SCRF)
  Peter R. Taylor,          VLSCI/Univ. of Melbourne,     Australia   (Symmetry handling ABACUS, integral transformation)
  Andrew M. Teale,          University of Nottingham,     England     (DFT-AC, DFT-D)
  David P. Tew,             University of Bristol,        England     (CCSD(R12))
  Julien Toulouse,          Sorbonne Univ.,               France      (MC-srDFT)
  Olav Vahtras,             KTH Stockholm,                Sweden      (Triplet response, spin-orbit, ESR, TDDFT, open-shell DFT)
  Lucas Visscher,           Vrije Universiteit Amsterdam, Netherlands (Frozen density embedding)
  David J. Wilson,          La Trobe University,          Australia   (DFT Hessian and DFT magnetizabilities)
  Hans Agren,               KTH Stockholm,                Sweden      (SIRIUS module, RESPONS, MC-SCRF solvation)
 --------------------------------------------------------------------------------

     Date and time (Linux)  : Wed May 28 01:07:39 2025
     Host name              : xm023                                   

 * Work memory size             :   131072000 = 1000.00 megabytes.

 * Directories for basis set searches:
   1) /gpfs/projects/rjh/adrian/summer2025/beta_projects/raw_data/NLO/dalton/hf/n7/dipole
   2) /gpfs/projects/rjh/adrian/dalton/build/basis


Compilation information
-----------------------

 Who compiled             | ahurtado
 Host                     | milan2
 System                   | Linux-5.14.0-427.42.1.el9_4.x86_64
 CMake generator          | Unix Makefiles
 Processor                | x86_64
 64-bit integers          | OFF
 MPI                      | ON
 Fortran compiler         | /gpfs/software/openmpi/milan/gcc13.2/4.1.6/bin/mpi
                          | f90
 Fortran compiler version | GNU Fortran (GCC) 13.2.0
 C compiler               | /gpfs/software/openmpi/milan/gcc13.2/4.1.6/bin/mpi
                          | cc
 C compiler version       | gcc (GCC) 13.2.0
 C++ compiler             | /gpfs/software/openmpi/milan/gcc13.2/4.1.6/bin/mpi
                          | cxx
 C++ compiler version     | unknown
 BLAS                     | /gpfs/software/intel/oneAPI/2024_2/mkl/2024.2/lib/
                          | intel64/libmkl_gf_lp64.so;/gpfs/software/intel/one
                          | API/2024_2/mkl/2024.2/lib/intel64/libmkl_sequentia
                          | l.so;/gpfs/software/intel/oneAPI/2024_2/mkl/2024.2
                          | /lib/intel64/libmkl_core.so;/usr/lib64/libpthread.
                          | a;/usr/lib64/libm.so
 LAPACK                   | /gpfs/software/intel/oneAPI/2024_2/mkl/2024.2/lib/
                          | intel64/libmkl_lapack95_lp64.a;/gpfs/software/inte
                          | l/oneAPI/2024_2/mkl/2024.2/lib/intel64/libmkl_gf_l
                          | p64.so
 Static linking           | OFF
 Last Git revision        | 66052b3af5ea7225e31178bf9a8b031913c72190
 Git branch               | (HEAD detached at Dalton2020.0)
 Configuration time       | 2025-04-10 16:02:31.569498

 * MPI parallel run using 576 processes.


   Content of the .dal input file
 ----------------------------------

**DALTON INPUT
.RUN RESPONSE
.DIRECT
**WAVE FUNCTIONS
.HF
**PROPERTIES
**RESPONSE
*QUADRA
.DIPLEN
.FREQUENCIES
2
0.0 0.019
**END OF DALTON INPUT


   Content of the .mol file
 ----------------------------

BASIS
d-aug-cc-pVTZ
blah
blah
Atomtype=4 Angstrom Charge=0 Nosymmetry
Charge=6 Atoms=14
C_a -5.688253998920483 -4.073789998608875 0.0
C_b -4.365261002041478 -3.7894669992272423 0.0
C_c -3.8410090024243475 -2.441841999132047 0.0
C_d -2.4968229980187657 -2.1745299991576497 0.0
C_e -1.934394000672653 -0.8473809979274352 0.0
C_f -0.5830420001909361 -0.5998170024375289 0.0
C_g 0.0 0.716076997491983 0.0
C_h 1.355741001558786 0.9461549988185847 0.0
C_i 1.9581610002367398 2.2527620022021035 0.0
C_j 3.3169849988084334 2.463290001281131 0.0
C_k 3.9445530014007044 3.7589580015352984 0.0
C_l 5.306200001638159 3.9389670014730997 0.0
C_m 5.975829998785722 5.214614000011564 0.0
C_n 7.341654001126106 5.320060999614071 0.0
Charge=7 Atoms=2
N_a 8.06204499940909 6.482939001032188 0.0
N_b -6.16284599821494 -5.452471001586912 0.0
Charge=8 Atoms=2
O_a -7.391974001849472 -5.593242998341496 0.0
O_b -5.336911002146733 -6.368107001264271 0.0
Charge=1 Atoms=16
H_a -6.50302400143975 -3.3473629986818767 0.0
H_b -3.6635359996003283 -4.632344000577958 0.0
H_c -4.55348100133573 -1.6057969983691793 0.0
H_d -1.7949299976885436 -3.021543001961013 0.0
H_e -2.630119001395431 0.0038470019025845527 0.0
H_f 0.10581700030820816 -1.4578720021307559 0.0
H_g -0.6827879990744163 1.5780069978540112 0.0
H_h 2.032161998643914 0.07803700124232153 0.0
H_i 1.2879499982624942 3.1245889975561805 0.0
H_j 3.9786580016606683 1.583488998584403 0.0
H_k 3.2915520012155386 4.643521001157808 0.0
H_l 5.942742997893013 3.040383001853259 0.0
H_m 5.36415599776086 6.127034999420813 0.0
H_n 7.952118001416368 4.408326999226803 0.0
H_o 7.597205000550958 7.380607000192131 0.0
H_p 9.070163998419307 6.470251998573463 0.0


       *******************************************************************
       *********** Output from DALTON general input processing ***********
       *******************************************************************

 --------------------------------------------------------------------------------
   Overall default print level:    0
   Print level for DALTON.STAT:    1

    Parallel calculation using MPI
    AO-direct calculation (in sections where implemented)
    HERMIT 1- and 2-electron integral sections will be executed
    "Old" integral transformation used (limited to max 255 basis functions)
    Wave function sections will be executed (SIRIUS module)
    Dynamic molecular response properties section will be executed (RESPONSE module)
 --------------------------------------------------------------------------------


   ****************************************************************************
   *************** Output of molecule and basis set information ***************
   ****************************************************************************


    The two title cards from your ".mol" input:
    ------------------------------------------------------------------------
 1: blah                                                                    
 2: blah                                                                    
    ------------------------------------------------------------------------

  Coordinates are entered in Angstrom and converted to atomic units.
          - Conversion factor : 1 bohr = 0.52917721 A

  Atomic type no.    1
  --------------------
  Nuclear charge:   6.00000
  Number of symmetry independent centers:   14
  Number of basis sets to read;    2
  Basis set file used for this atomic type with Z =   6 :
     "/gpfs/projects/rjh/adrian/dalton/build/basis/aug-cc-pVTZ"

  Atomic type no.    2
  --------------------
  Nuclear charge:   7.00000
  Number of symmetry independent centers:    2
  Number of basis sets to read;    2
  Basis set file used for this atomic type with Z =   7 :
     "/gpfs/projects/rjh/adrian/dalton/build/basis/aug-cc-pVTZ"

  Atomic type no.    3
  --------------------
  Nuclear charge:   8.00000
  Number of symmetry independent centers:    2
  Number of basis sets to read;    2
  Basis set file used for this atomic type with Z =   8 :
     "/gpfs/projects/rjh/adrian/dalton/build/basis/aug-cc-pVTZ"

  Atomic type no.    4
  --------------------
  Nuclear charge:   1.00000
  Number of symmetry independent centers:   16
  Number of basis sets to read;    2
  Basis set file used for this atomic type with Z =   1 :
     "/gpfs/projects/rjh/adrian/dalton/build/basis/aug-cc-pVTZ"


                         SYMGRP: Point group information
                         -------------------------------

@    Point group: C1 


                                 Isotopic Masses
                                 ---------------

                           C_a        12.000000
                           C_b        12.000000
                           C_c        12.000000
                           C_d        12.000000
                           C_e        12.000000
                           C_f        12.000000
                           C_g        12.000000
                           C_h        12.000000
                           C_i        12.000000
                           C_j        12.000000
                           C_k        12.000000
                           C_l        12.000000
                           C_m        12.000000
                           C_n        12.000000
                           N_a        14.003074
                           N_b        14.003074
                           O_a        15.994915
                           O_b        15.994915
                           H_a         1.007825
                           H_b         1.007825
                           H_c         1.007825
                           H_d         1.007825
                           H_e         1.007825
                           H_f         1.007825
                           H_g         1.007825
                           H_h         1.007825
                           H_i         1.007825
                           H_j         1.007825
                           H_k         1.007825
                           H_l         1.007825
                           H_m         1.007825
                           H_n         1.007825
                           H_o         1.007825
                           H_p         1.007825

                       Total mass:   244.121178 amu
                       Natural abundance:  84.411 %

 Center-of-mass coordinates (a.u.):   -0.205246   -0.186700    0.000000
 Center-of-mass coordinates (Angs):   -0.108612   -0.098797    0.000000


  Atoms and basis sets
  --------------------

  Number of atom types :    4
  Total number of atoms:   34

  Basis set used is "d-aug-cc-pVTZ" from the basis set library.

  label    atoms   charge   prim   cont     basis
  ----------------------------------------------------------------------
  C_         14    6.0000    74    62      [12s7p4d3f|6s5p4d3f]                               
  N_          2    7.0000    74    62      [12s7p4d3f|6s5p4d3f]                               
  O_          2    8.0000    74    62      [12s7p4d3f|6s5p4d3f]                               
  H_         16    1.0000    34    32      [7s4p3d|5s4p3d]                                    
  ----------------------------------------------------------------------
  total:     34  130.0000  1876  1628
  ----------------------------------------------------------------------
  Spherical harmonic basis used.

  Threshold for neglecting AO integrals:  1.00D-12

  Max    interatomic separation is   20.4091 Angstrom (   38.5675 Bohr)
  between atoms   34 and   17, "H_p   " and "O_a   ".

  Min HX interatomic separation is    1.0082 Angstrom (    1.9052 Bohr)

  Min YX interatomic separation is    1.2331 Angstrom (    2.3302 Bohr)


  Bond distances (Angstrom):
  --------------------------

                  atom 1     atom 2       distance
                  ------     ------       --------
  bond distance:  C_b        C_a          1.353200
  bond distance:  C_c        C_b          1.446006
  bond distance:  C_d        C_c          1.370508
  bond distance:  C_e        C_d          1.441406
  bond distance:  C_f        C_e          1.373841
  bond distance:  C_g        C_f          1.439276
  bond distance:  C_h        C_g          1.375125
  bond distance:  C_i        C_h          1.438795
  bond distance:  C_j        C_i          1.375036
  bond distance:  C_k        C_j          1.439652
  bond distance:  C_l        C_k          1.373494
  bond distance:  C_m        C_l          1.440722
  bond distance:  C_n        C_m          1.369888
  bond distance:  N_a        C_n          1.367936
  bond distance:  N_b        C_a          1.458081
  bond distance:  O_a        N_b          1.237163
  bond distance:  O_b        N_b          1.233109
  bond distance:  H_a        C_a          1.091580
  bond distance:  H_b        C_b          1.096750
  bond distance:  H_c        C_c          1.098448
  bond distance:  H_d        C_d          1.100039
  bond distance:  H_e        C_e          1.099374
  bond distance:  H_f        C_f          1.100357
  bond distance:  H_g        C_g          1.099601
  bond distance:  H_h        C_h          1.100534
  bond distance:  H_i        C_i          1.099666
  bond distance:  H_j        C_j          1.100846
  bond distance:  H_k        C_k          1.099483
  bond distance:  H_l        C_l          1.101199
  bond distance:  H_m        C_m          1.098479
  bond distance:  H_n        C_n          1.097235
  bond distance:  H_o        N_a          1.010883
  bond distance:  H_p        N_a          1.008199


  Bond angles (degrees):
  ----------------------

                  atom 1     atom 2     atom 3         angle
                  ------     ------     ------         -----
  bond angle:     C_b        C_a        N_b          121.124
  bond angle:     C_b        C_a        H_a          126.152
  bond angle:     N_b        C_a        H_a          112.724
  bond angle:     C_a        C_b        C_c          123.386
  bond angle:     C_a        C_b        H_b          117.650
  bond angle:     C_c        C_b        H_b          118.964
  bond angle:     C_b        C_c        C_d          122.504
  bond angle:     C_b        C_c        H_c          118.306
  bond angle:     C_d        C_c        H_c          119.190
  bond angle:     C_c        C_d        C_e          124.214
  bond angle:     C_c        C_d        H_d          118.400
  bond angle:     C_e        C_d        H_d          117.386
  bond angle:     C_d        C_e        C_f          123.348
  bond angle:     C_d        C_e        H_e          117.774
  bond angle:     C_f        C_e        H_e          118.878
  bond angle:     C_e        C_f        C_g          124.278
  bond angle:     C_e        C_f        H_f          118.377
  bond angle:     C_g        C_f        H_f          117.345
  bond angle:     C_f        C_g        C_h          123.529
  bond angle:     C_f        C_g        H_g          117.718
  bond angle:     C_h        C_g        H_g          118.753
  bond angle:     C_g        C_h        C_i          124.384
  bond angle:     C_g        C_h        H_h          118.293
  bond angle:     C_i        C_h        H_h          117.323
  bond angle:     C_h        C_i        C_j          123.559
  bond angle:     C_h        C_i        H_i          117.697
  bond angle:     C_j        C_i        H_i          118.744
  bond angle:     C_i        C_j        C_k          124.651
  bond angle:     C_i        C_j        H_j          118.139
  bond angle:     C_k        C_j        H_j          117.211
  bond angle:     C_j        C_k        C_l          123.374
  bond angle:     C_j        C_k        H_k          117.721
  bond angle:     C_l        C_k        H_k          118.905
  bond angle:     C_k        C_l        C_m          125.227
  bond angle:     C_k        C_l        H_l          117.782
  bond angle:     C_m        C_l        H_l          116.990
  bond angle:     C_l        C_m        C_n          122.111
  bond angle:     C_l        C_m        H_m          118.466
  bond angle:     C_n        C_m        H_m          119.423
  bond angle:     C_m        C_n        N_a          126.192
  bond angle:     C_m        C_n        H_n          119.390
  bond angle:     N_a        C_n        H_n          114.417
  bond angle:     C_n        N_a        H_o          120.846
  bond angle:     C_n        N_a        H_p          121.057
  bond angle:     H_o        N_a        H_p          118.098
  bond angle:     C_a        N_b        O_a          115.529
  bond angle:     C_a        N_b        O_b          118.953
  bond angle:     O_a        N_b        O_b          125.518




 Principal moments of inertia (u*A**2) and principal axes
 --------------------------------------------------------

   IA      97.541278          0.769275    0.638918    0.000000
   IB    9862.539910         -0.638918    0.769275    0.000000
   IC    9960.081189          0.000000    0.000000    1.000000


 Rotational constants
 --------------------

@    The molecule is planar.

               A                   B                   C

           5181.1809             51.2423             50.7405 MHz
            0.172826            0.001709            0.001693 cm-1


@  Nuclear repulsion energy :  980.156376287948 Hartree


                     .---------------------------------------.
                     | Starting in Integral Section (HERMIT) |
                     `---------------------------------------'



 ***************************************************************************************
 ****************** Output from **INTEGRALS input processing (HERMIT) ******************
 ***************************************************************************************


 - Using defaults, no **INTEGRALS input found

 Default print level:        1

 Calculation of one-electron Hamiltonian integrals.

 Center of mass  (bohr):     -0.205246260585     -0.186699563756      0.000000000000
 Operator center (bohr):      0.000000000000      0.000000000000      0.000000000000
 Gauge origin    (bohr):      0.000000000000      0.000000000000      0.000000000000
 Dipole origin   (bohr):      0.000000000000      0.000000000000      0.000000000000


     ************************************************************************
     ************************** Output from HERINT **************************
     ************************************************************************



                      Nuclear contribution to dipole moments
                      --------------------------------------

                 au               Debye          C m (/(10**-30)

      x      0.00001130         0.00002872         0.00009581
      y     -0.00001317        -0.00003347        -0.00011166
      z      0.00000000         0.00000000         0.00000000


  Time used in ONEDRV     is       4.19 seconds
  Time used in HUCKEL     is       0.99 seconds
  Time used in OVERLAP    is       0.57 seconds
  Time used in POPOVLP    is       1.09 seconds
  Time used in R2         is       0.70 seconds
  Time used in R4         is       0.83 seconds
  Time used in DIPLEN     is       0.96 seconds
  Time used in QUADRUP    is       1.92 seconds
  Time used in KINENE     is       0.95 seconds
  Time used in GABGEN     is      10.33 seconds
  Total CPU  time used in HERMIT:  22.54 seconds
  Total wall time used in HERMIT:  22.89 seconds


                        .----------------------------------.
                        | End of Integral Section (HERMIT) |
                        `----------------------------------'



                   .--------------------------------------------.
                   | Starting in Wave Function Section (SIRIUS) |
                   `--------------------------------------------'



@ Primary orbitals are deleted during canonical orthonormalization
@   because of detected numerical linear dependence or too large coefficients.
@ Eigenvalue threshold for num. lin. dep. =  1.00D-06

@  97 MO components are deleted in symmetry    1
 Overlap eigenvalues of the deleted orbitals:
  9.87D-07  9.58D-07  9.17D-07  8.85D-07  8.58D-07
  8.16D-07  7.85D-07  7.76D-07  7.05D-07  6.71D-07
  6.19D-07  5.59D-07  5.45D-07  5.08D-07  4.81D-07
  4.58D-07  4.43D-07  4.30D-07  4.24D-07  4.04D-07
  3.99D-07  3.65D-07  3.52D-07  3.45D-07  3.08D-07
  2.91D-07  2.82D-07  2.60D-07  2.58D-07  2.49D-07
  2.29D-07  2.25D-07  2.13D-07  1.99D-07  1.93D-07
  1.87D-07  1.59D-07  1.55D-07  1.46D-07  1.39D-07
  1.32D-07  1.23D-07  1.16D-07  1.10D-07  1.07D-07
  1.03D-07  9.79D-08  9.09D-08  8.97D-08  8.20D-08
  7.95D-08  7.76D-08  7.04D-08  6.70D-08  6.62D-08
  6.38D-08  6.09D-08  5.97D-08  5.53D-08  5.40D-08
  4.78D-08  4.34D-08  4.26D-08  3.81D-08  3.56D-08
  3.51D-08  3.20D-08  3.07D-08  2.81D-08  2.63D-08
  2.53D-08  2.18D-08  2.12D-08  1.79D-08  1.74D-08
  1.53D-08  1.42D-08  1.32D-08  1.19D-08  1.11D-08
  9.35D-09  8.65D-09  7.80D-09  6.56D-09  5.91D-09
  5.12D-09  4.27D-09  3.98D-09  3.64D-09  3.32D-09
  3.02D-09  2.02D-09  1.13D-09  1.05D-09  8.90D-10
  6.62D-10  3.73D-10

 Max MO coeff. of last deleted MO & limit:  2.54D+02  1.00D+03

WARNING: Orbitals have been deleted because of numerical
   linear dependence although not requested in input.

 *** Output from Huckel module :

     Using EWMO model:          T
     Using EHT  model:          F
     Number of Huckel orbitals each symmetry:  106

 EWMO - Energy Weighted Maximum Overlap - is a Huckel type method,
        which normally is better than Extended Huckel Theory.
 Reference: Linderberg and Ohrn, Propagators in Quantum Chemistry (Wiley, 1973)

 Huckel EWMO eigenvalues for symmetry :  1
          -20.684753     -20.683492     -15.677078     -15.674970     -11.359301
          -11.359159     -11.358872     -11.357977     -11.356157     -11.353878
          -11.351614     -11.348326     -11.347057     -11.346068     -11.345522
          -11.345452     -11.345269     -11.345246      -1.964051      -1.791566
           -1.778481      -1.739932      -1.665395      -1.556023      -1.449247
           -1.414950      -1.276025      -1.196856      -1.147045      -1.126329
           -1.059899      -0.992425      -0.966392      -0.880475      -0.872099
           -0.852004      -0.820399      -0.772916      -0.756153      -0.734376
           -0.730012      -0.689678      -0.670994      -0.653153      -0.626376
           -0.604435      -0.603097      -0.585270      -0.559913      -0.549165
           -0.535375      -0.531153      -0.508130      -0.501152      -0.494001
           -0.488089      -0.484778      -0.477616      -0.476986      -0.470451
           -0.449592      -0.413294      -0.403925      -0.370769      -0.366828
           -0.335018      -0.291582      -0.260815      -0.236815      -0.229147
           -0.219194      -0.207046      -0.201042      -0.199305      -0.195045
           -0.190532      -0.166582      -0.142745      -0.138800      -0.132988
           -0.131056      -0.130764      -0.129488      -0.129047      -0.128951
           -0.127697      -0.127089      -0.126387      -0.125248      -0.125045
           -0.123898      -0.123125      -0.111232      -0.108736      -0.103713
           -0.101414      -0.095966      -0.094499      -0.090640      -0.089296
           -0.087338      -0.085948      -0.085051      -0.082948      -0.080875
           -0.079433

 **********************************************************************
 *SIRIUS* a direct, restricted step, second order MCSCF program       *
 **********************************************************************

 
     Date and time (Linux)  : Wed May 28 01:11:49 2025
     Host name              : xm023                                   

 Title lines from ".mol" input file:
     blah                                                                    
     blah                                                                    

 Print level on unit LUPRI =   2 is   0
 Print level on unit LUW4  =   2 is   5

@    Restricted, closed shell Hartree-Fock calculation.

@    Time-dependent Hartree-Fock calculation (random phase approximation).
 Fock matrices are calculated directly and in parallel without use of integrals on disk.

 Initial molecular orbitals are obtained according to
 ".MOSTART EWMO  " input option

     Wave function specification
     ============================
@    Wave function type        --- HF ---
@    Number of closed shell electrons         130
@    Number of electrons in active shells       0
@    Total charge of the molecule               0

@    Spin multiplicity and 2 M_S                1         0
@    Total number of symmetries                 1 (point group: C1 )
@    Reference state symmetry                   1 (irrep name : A  )

     Orbital specifications
     ======================
@    Abelian symmetry species          All |    1
@                                          |  A  
                                       --- |  ---
@    Occupied SCF orbitals              65 |   65
@    Secondary orbitals               1466 | 1466
@    Total number of orbitals         1531 | 1531
@    Number of basis functions        1628 | 1628

     Optimization information
     ========================
@    Number of configurations                 1
@    Number of orbital rotations          95290
     ------------------------------------------
@    Total number of variables            95291

     Maximum number of Fock   iterations      0
     Maximum number of DIIS   iterations     60
     Maximum number of QC-SCF iterations     60
     Threshold for SCF convergence     1.00D-05

    INFORMATION: Switched to "new" integral transformation (from 1988 ;-) )
    because more than 255 basis functions.


 ***********************************************
 ***** DIIS acceleration of SCF iterations *****
 ***********************************************

 C1-DIIS algorithm; max error vectors =    8

 Iter      Total energy        Error norm    Delta(E)  DIIS dim.
 -----------------------------------------------------------------------------
   1  Screening settings (-IFTHRS, JTDIIS, DIFDEN, times)  -10    1    T  5.65D+01  5.67D+01
@  1    -795.002578774        7.03146D+00   -7.95D+02    1
      Virial theorem: -V/T =      2.009467
@    MULPOP   C_a     0.09; C_b     0.42; C_c     0.24; C_d     0.37; C_e     0.19; C_f     0.32; C_g     0.28; C_h     0.32; C_i     0.20; C_j     0.30; 
@             C_k     0.17; C_l     0.28; C_m     0.14; C_n     0.53; N_a    -0.88; N_b     0.04; O_a    -0.76; O_b    -0.73; H_a     0.17; H_b    -0.07; 
@             H_c    -0.12; H_d    -0.21; H_e    -0.21; H_f    -0.32; H_g    -0.25; H_h    -0.23; H_i    -0.21; H_j    -0.25; H_k    -0.27; H_l    -0.19; 
@    MULPOP    dipole moment & components:     23.1424;       16.5564     16.1697      0.0000
   1  Level shift: doubly occupied orbital energies shifted by -2.00D-01
 -----------------------------------------------------------------------------
   2  Screening settings (-IFTHRS, JTDIIS, DIFDEN, times)  -10    2    T  5.29D+01  5.31D+01
@  2    -797.667026742        2.93513D+00   -2.66D+00    2
      Virial theorem: -V/T =      2.001249
@    MULPOP   C_a    -0.52; C_b     0.20; C_c     0.24; C_d     0.32; C_e    -0.00; C_f     0.24; C_g     0.15; C_h     0.17; C_i     0.11; C_j     0.13; 
@             C_k     0.23; C_l     0.07; C_m     0.03; C_n    -0.23; N_a    -0.67; N_b    -0.07; O_a    -0.70; O_b    -0.73; H_a     0.88; H_b     0.28; 
@             H_c     0.03; H_d    -0.07; H_e    -0.06; H_f    -0.23; H_g    -0.16; H_h    -0.11; H_i    -0.10; H_j    -0.15; H_k    -0.21; H_l    -0.01; 
@    MULPOP    dipole moment & components:     11.4217;        6.7380      9.2225      0.0000
   2  Level shift: doubly occupied orbital energies shifted by -1.00D-01
 -----------------------------------------------------------------------------
   3  Screening settings (-IFTHRS, JTDIIS, DIFDEN, times)  -10    3    T  5.23D+01  5.27D+01
@  3    -798.083738684        8.92771D-01   -4.17D-01    3
      Virial theorem: -V/T =      2.001550
@    MULPOP   C_a    -0.19; C_b     0.15; C_c     0.20; C_d     0.24; C_e    -0.01; C_f     0.19; C_g     0.13; C_h     0.16; C_i     0.06; C_j     0.10; 
@             C_k     0.12; C_l     0.11; C_m    -0.11; C_n     0.00; N_a    -0.77; N_b     0.65; O_a    -1.22; O_b    -1.07; H_a     0.81; H_b     0.31; 
@             H_c     0.05; H_d    -0.03; H_e    -0.02; H_f    -0.19; H_g    -0.12; H_h    -0.09; H_i    -0.05; H_j    -0.09; H_k    -0.14; H_l     0.02; 
@    MULPOP    dipole moment & components:      9.8430;        5.4973      8.1648      0.0000
   3  Level shift: doubly occupied orbital energies shifted by -5.00D-02
 -----------------------------------------------------------------------------
   4  Screening settings (-IFTHRS, JTDIIS, DIFDEN, times)  -10    4    T  5.22D+01  5.24D+01
@  4    -798.134709817        2.66493D-01   -5.10D-02    4
      Virial theorem: -V/T =      2.003397
@    MULPOP   C_a    -0.21; C_b     0.14; C_c     0.18; C_d     0.26; C_e     0.01; C_f     0.22; C_g     0.13; C_h     0.19; C_i     0.06; C_j     0.11; 
@             C_k     0.12; C_l     0.15; C_m    -0.15; C_n     0.06; N_a    -0.82; N_b     0.58; O_a    -1.19; O_b    -1.04; H_a     0.82; H_b     0.32; 
@             H_c     0.05; H_d    -0.03; H_e    -0.02; H_f    -0.18; H_g    -0.13; H_h    -0.10; H_i    -0.05; H_j    -0.09; H_k    -0.14; H_l     0.01; 
@    MULPOP    dipole moment & components:      8.9324;        4.9437      7.4396      0.0000
   4  Level shift: doubly occupied orbital energies shifted by -2.50D-02
 -----------------------------------------------------------------------------
   5  Screening settings (-IFTHRS, JTDIIS, DIFDEN, times)  -10    5    T  5.15D+01  5.18D+01
@  5    -798.144666476        1.09072D-01   -9.96D-03    5
      Virial theorem: -V/T =      2.002727
@    MULPOP   C_a    -0.19; C_b     0.11; C_c     0.18; C_d     0.24; C_e     0.00; C_f     0.21; C_g     0.12; C_h     0.18; C_i     0.05; C_j     0.11; 
@             C_k     0.11; C_l     0.15; C_m    -0.15; C_n     0.04; N_a    -0.84; N_b     0.65; O_a    -1.23; O_b    -1.05; H_a     0.82; H_b     0.33; 
@             H_c     0.05; H_d    -0.02; H_e    -0.02; H_f    -0.17; H_g    -0.12; H_h    -0.09; H_i    -0.05; H_j    -0.09; H_k    -0.14; H_l     0.01; 
@    MULPOP    dipole moment & components:      8.3814;        4.5578      7.0338      0.0000
   5  Level shift: doubly occupied orbital energies shifted by -1.25D-02
 -----------------------------------------------------------------------------
   6  Screening settings (-IFTHRS, JTDIIS, DIFDEN, times)  -14    6    F  5.46D+01  5.48D+01
@  6    -798.147361164        5.48642D-02   -2.69D-03    6
      Virial theorem: -V/T =      2.002586
@    MULPOP   C_a    -0.21; C_b     0.12; C_c     0.18; C_d     0.24; C_e     0.01; C_f     0.21; C_g     0.12; C_h     0.18; C_i     0.05; C_j     0.11; 
@             C_k     0.10; C_l     0.16; C_m    -0.16; C_n     0.03; N_a    -0.84; N_b     0.64; O_a    -1.22; O_b    -1.05; H_a     0.82; H_b     0.33; 
@             H_c     0.05; H_d    -0.02; H_e    -0.02; H_f    -0.17; H_g    -0.12; H_h    -0.09; H_i    -0.05; H_j    -0.09; H_k    -0.14; H_l     0.01; 
@    MULPOP    dipole moment & components:      8.0966;        4.3528      6.8270      0.0000
   6  Level shift: doubly occupied orbital energies shifted by -1.25D-02
 -----------------------------------------------------------------------------
   7  Screening settings (-IFTHRS, JTDIIS, DIFDEN, times)  -14    7    T  5.44D+01  5.46D+01
@  7    -798.148166128        2.59659D-02   -8.05D-04    7
      Virial theorem: -V/T =      2.002626
@    MULPOP   C_a    -0.21; C_b     0.12; C_c     0.18; C_d     0.24; C_e     0.01; C_f     0.21; C_g     0.12; C_h     0.19; C_i     0.05; C_j     0.11; 
@             C_k     0.10; C_l     0.16; C_m    -0.16; C_n     0.03; N_a    -0.85; N_b     0.65; O_a    -1.22; O_b    -1.04; H_a     0.82; H_b     0.33; 
@             H_c     0.05; H_d    -0.01; H_e    -0.02; H_f    -0.17; H_g    -0.12; H_h    -0.09; H_i    -0.05; H_j    -0.09; H_k    -0.14; H_l     0.01; 
@    MULPOP    dipole moment & components:      7.9462;        4.2742      6.6988      0.0000
 -----------------------------------------------------------------------------
   8  Screening settings (-IFTHRS, JTDIIS, DIFDEN, times)  -14    8    T  5.39D+01  5.40D+01
@  8    -798.148358363        1.10791D-02   -1.92D-04    8
      Virial theorem: -V/T =      2.002622
@    MULPOP   C_a    -0.21; C_b     0.12; C_c     0.18; C_d     0.24; C_e     0.01; C_f     0.20; C_g     0.12; C_h     0.19; C_i     0.05; C_j     0.11; 
@             C_k     0.10; C_l     0.16; C_m    -0.16; C_n     0.03; N_a    -0.85; N_b     0.65; O_a    -1.22; O_b    -1.05; H_a     0.82; H_b     0.33; 
@             H_c     0.05; H_d    -0.01; H_e    -0.02; H_f    -0.17; H_g    -0.12; H_h    -0.09; H_i    -0.05; H_j    -0.09; H_k    -0.14; H_l     0.01; 
@    MULPOP    dipole moment & components:      7.8230;        4.1825      6.6110      0.0000
 -----------------------------------------------------------------------------
   9  Screening settings (-IFTHRS, JTDIIS, DIFDEN, times)  -14    9    T  5.38D+01  5.40D+01
@  9    -798.148385853        4.23579D-03   -2.75D-05    8
      Virial theorem: -V/T =      2.002612
@    MULPOP   C_a    -0.21; C_b     0.13; C_c     0.18; C_d     0.24; C_e     0.01; C_f     0.20; C_g     0.12; C_h     0.19; C_i     0.05; C_j     0.11; 
@             C_k     0.10; C_l     0.16; C_m    -0.16; C_n     0.03; N_a    -0.85; N_b     0.65; O_a    -1.22; O_b    -1.04; H_a     0.82; H_b     0.33; 
@             H_c     0.05; H_d    -0.01; H_e    -0.02; H_f    -0.17; H_g    -0.12; H_h    -0.09; H_i    -0.05; H_j    -0.09; H_k    -0.14; H_l     0.01; 
@    MULPOP    dipole moment & components:      7.7593;        4.1319      6.5677      0.0000
 -----------------------------------------------------------------------------
  10  Screening settings (-IFTHRS, JTDIIS, DIFDEN, times)  -14   10    T  5.37D+01  5.40D+01
@ 10    -798.148392086        2.33200D-03   -6.23D-06    8
      Virial theorem: -V/T =      2.002613
@    MULPOP   C_a    -0.21; C_b     0.12; C_c     0.18; C_d     0.24; C_e     0.01; C_f     0.20; C_g     0.12; C_h     0.19; C_i     0.05; C_j     0.11; 
@             C_k     0.10; C_l     0.16; C_m    -0.15; C_n     0.03; N_a    -0.85; N_b     0.65; O_a    -1.22; O_b    -1.04; H_a     0.82; H_b     0.33; 
@             H_c     0.05; H_d    -0.01; H_e    -0.02; H_f    -0.17; H_g    -0.12; H_h    -0.09; H_i    -0.05; H_j    -0.09; H_k    -0.14; H_l     0.01; 
@    MULPOP    dipole moment & components:      7.7167;        4.0907      6.5433      0.0000
 -----------------------------------------------------------------------------
  11  Screening settings (-IFTHRS, JTDIIS, DIFDEN, times)  -14   11    T  5.33D+01  5.35D+01
@ 11    -798.148394332        1.36996D-03   -2.25D-06    8
      Virial theorem: -V/T =      2.002614
@    MULPOP   C_a    -0.21; C_b     0.12; C_c     0.18; C_d     0.24; C_e     0.01; C_f     0.20; C_g     0.12; C_h     0.19; C_i     0.05; C_j     0.11; 
@             C_k     0.10; C_l     0.16; C_m    -0.15; C_n     0.03; N_a    -0.85; N_b     0.65; O_a    -1.22; O_b    -1.04; H_a     0.82; H_b     0.33; 
@             H_c     0.05; H_d    -0.01; H_e    -0.02; H_f    -0.17; H_g    -0.12; H_h    -0.09; H_i    -0.05; H_j    -0.09; H_k    -0.14; H_l     0.01; 
@    MULPOP    dipole moment & components:      7.6912;        4.0657      6.5287      0.0000
 -----------------------------------------------------------------------------
  12  Screening settings (-IFTHRS, JTDIIS, DIFDEN, times)  -14   12    T  5.33D+01  5.37D+01
@ 12    -798.148395131        4.42198D-04   -7.99D-07    8
      Virial theorem: -V/T =      2.002613
@    MULPOP   C_a    -0.21; C_b     0.12; C_c     0.18; C_d     0.24; C_e     0.01; C_f     0.20; C_g     0.12; C_h     0.19; C_i     0.05; C_j     0.11; 
@             C_k     0.10; C_l     0.16; C_m    -0.15; C_n     0.03; N_a    -0.85; N_b     0.65; O_a    -1.22; O_b    -1.04; H_a     0.82; H_b     0.33; 
@             H_c     0.05; H_d    -0.01; H_e    -0.02; H_f    -0.17; H_g    -0.12; H_h    -0.09; H_i    -0.05; H_j    -0.09; H_k    -0.14; H_l     0.01; 
@    MULPOP    dipole moment & components:      7.6721;        4.0466      6.5182      0.0000
 -----------------------------------------------------------------------------
  13  Screening settings (-IFTHRS, JTDIIS, DIFDEN, times)  -14   13    T  5.29D+01  5.32D+01
@ 13    -798.148395217        1.79077D-04   -8.57D-08    8
      Virial theorem: -V/T =      2.002613
@    MULPOP   C_a    -0.21; C_b     0.12; C_c     0.18; C_d     0.24; C_e     0.01; C_f     0.20; C_g     0.12; C_h     0.19; C_i     0.05; C_j     0.11; 
@             C_k     0.10; C_l     0.16; C_m    -0.15; C_n     0.03; N_a    -0.85; N_b     0.65; O_a    -1.22; O_b    -1.04; H_a     0.82; H_b     0.33; 
@             H_c     0.05; H_d    -0.01; H_e    -0.02; H_f    -0.17; H_g    -0.12; H_h    -0.09; H_i    -0.05; H_j    -0.09; H_k    -0.14; H_l     0.01; 
@    MULPOP    dipole moment & components:      7.6651;        4.0395      6.5143      0.0000
 -----------------------------------------------------------------------------
  14  Screening settings (-IFTHRS, JTDIIS, DIFDEN, times)  -14   14    T  5.23D+01  5.26D+01
@ 14    -798.148395223        7.38289D-05   -6.35D-09    8
      Virial theorem: -V/T =      2.002613
@    MULPOP   C_a    -0.21; C_b     0.12; C_c     0.18; C_d     0.24; C_e     0.01; C_f     0.20; C_g     0.12; C_h     0.19; C_i     0.05; C_j     0.11; 
@             C_k     0.10; C_l     0.16; C_m    -0.15; C_n     0.03; N_a    -0.85; N_b     0.65; O_a    -1.22; O_b    -1.04; H_a     0.82; H_b     0.33; 
@             H_c     0.05; H_d    -0.01; H_e    -0.02; H_f    -0.17; H_g    -0.12; H_h    -0.09; H_i    -0.05; H_j    -0.09; H_k    -0.14; H_l     0.01; 
@    MULPOP    dipole moment & components:      7.6642;        4.0384      6.5139      0.0000
 -----------------------------------------------------------------------------
  15  Screening settings (-IFTHRS, JTDIIS, DIFDEN, times)  -14   15    T  5.22D+01  5.26D+01
@ 15    -798.148395225        3.37429D-05   -1.26D-09    8
      Virial theorem: -V/T =      2.002613
@    MULPOP   C_a    -0.21; C_b     0.12; C_c     0.18; C_d     0.24; C_e     0.01; C_f     0.20; C_g     0.12; C_h     0.19; C_i     0.05; C_j     0.11; 
@             C_k     0.10; C_l     0.16; C_m    -0.15; C_n     0.03; N_a    -0.85; N_b     0.65; O_a    -1.22; O_b    -1.04; H_a     0.82; H_b     0.33; 
@             H_c     0.05; H_d    -0.01; H_e    -0.02; H_f    -0.17; H_g    -0.12; H_h    -0.09; H_i    -0.05; H_j    -0.09; H_k    -0.14; H_l     0.01; 
@    MULPOP    dipole moment & components:      7.6636;        4.0378      6.5136      0.0000
 -----------------------------------------------------------------------------
  16  Screening settings (-IFTHRS, JTDIIS, DIFDEN, times)  -14   16    T  5.20D+01  5.22D+01
@ 16    -798.148395225        1.46071D-05   -1.68D-10    8
      Virial theorem: -V/T =      2.002613
@    MULPOP   C_a    -0.21; C_b     0.12; C_c     0.18; C_d     0.24; C_e     0.01; C_f     0.20; C_g     0.12; C_h     0.19; C_i     0.05; C_j     0.11; 
@             C_k     0.10; C_l     0.16; C_m    -0.15; C_n     0.03; N_a    -0.85; N_b     0.65; O_a    -1.22; O_b    -1.04; H_a     0.82; H_b     0.33; 
@             H_c     0.05; H_d    -0.01; H_e    -0.02; H_f    -0.17; H_g    -0.12; H_h    -0.09; H_i    -0.05; H_j    -0.09; H_k    -0.14; H_l     0.01; 
@    MULPOP    dipole moment & components:      7.6636;        4.0377      6.5136      0.0000
 -----------------------------------------------------------------------------
  17  Screening settings (-IFTHRS, JTDIIS, DIFDEN, times)  -14   17    T  5.20D+01  5.22D+01
@ 17    -798.148395225        8.79634D-06   -5.48D-11    8

@ *** DIIS converged in  17 iterations !
@     Converged SCF energy, gradient:   -798.148395224868    8.80D-06
    - total time used in SIRFCK :              0.00 seconds


 *** SCF orbital energy analysis ***

 Only the 20 lowest virtual orbital energies printed in each symmetry.

 Number of electrons :  130
 Orbital occupations :   65

 Sym       Hartree-Fock orbital energies

1 A     -20.58425843   -20.58146920   -15.83483196   -15.59768448   -11.30887607
        -11.28623106   -11.28434971   -11.27538289   -11.26722833   -11.26132367
        -11.26027644   -11.25752716   -11.25482665   -11.24929053   -11.24493073
        -11.23994198   -11.23458997   -11.23185785    -1.57468972    -1.37247598
         -1.24277193    -1.13948895    -1.12234915    -1.10611484    -1.08281117
         -1.05240995    -1.01577836    -0.97376364    -0.93553664    -0.87474151
         -0.83130219    -0.79940066    -0.78266464    -0.77826461    -0.76463791
         -0.76103399    -0.73215956    -0.72280295    -0.70802248    -0.69267634
         -0.68559956    -0.66552218    -0.65447460    -0.62743926    -0.62247384
         -0.59743979    -0.58024326    -0.57128368    -0.55162219    -0.54311253
         -0.53553445    -0.53016798    -0.52348972    -0.51455487    -0.50534604
         -0.49458440    -0.47748585    -0.47495385    -0.47421463    -0.44501461
         -0.43615156    -0.40536632    -0.35642620    -0.30028843    -0.24272661
         -0.00085051     0.00385473     0.00659605     0.00917772     0.01117733
          0.01154421     0.01442062     0.01446864     0.01624834     0.01830213
          0.01902407     0.01989352     0.02195493     0.02243949     0.02338586
          0.02347340     0.02607835     0.02709223     0.02875498     0.02944830

    E(LUMO) :    -0.00085051 au (symmetry 1)
  - E(HOMO) :    -0.24272661 au (symmetry 1)
  ------------------------------------------
    gap     :     0.24187610 au

 --- Writing SIRIFC interface file

 CPU and wall time for SCF :    1388.355    1395.616


                       .-----------------------------------.
                       | --- Final results from SIRIUS --- |
                       `-----------------------------------'


@    Spin multiplicity:           1
@    Spatial symmetry:            1 ( irrep  A   in C1  )
@    Total charge of molecule:    0

@    Final HF energy:            -798.148395224868                 
@    Nuclear repulsion:           980.156376287948
@    Electronic energy:         -1778.304771512816

@    Final gradient norm:           0.000008796340

 
     Date and time (Linux)  : Wed May 28 01:35:12 2025
     Host name              : xm023                                   

File label for MO orbitals:  28May25   FOCKDIIS

 (Only coefficients > 0.0100 are printed.)

 Molecular orbitals for symmetry species 1  (A  )
 ------------------------------------------------

    Orbital        56       57       58       59       60       61       62
   2 C_a :1s    -0.0000   0.1039   0.0186  -0.0000   0.0000  -0.0000   0.0000
   4 C_a :1s     0.0000   0.3439  -0.1176  -0.0000   0.0000  -0.0000   0.0000
   5 C_a :1s     0.0000  -0.1016   0.0517  -0.0000   0.0000   0.0000  -0.0000
   6 C_a :1s    -0.0000  -0.0968  -0.0523   0.0000  -0.0000   0.0000   0.0000
   7 C_a :2px   -0.0000  -0.1406   0.0547   0.0000  -0.0000   0.0000   0.0000
   8 C_a :2py   -0.0000  -0.2792  -0.1540   0.0000   0.0000  -0.0000  -0.0000
   9 C_a :2pz   -0.1507  -0.0000  -0.0000   0.1887  -0.2467  -0.0289   0.2948
  10 C_a :2px    0.0000   0.0124   0.0017  -0.0000   0.0000   0.0000  -0.0000
  11 C_a :2py   -0.0000   0.0164  -0.0003   0.0000   0.0000  -0.0000  -0.0000
  13 C_a :2px    0.0000   0.2051   0.0771   0.0000  -0.0000   0.0000  -0.0000
  14 C_a :2py   -0.0000  -0.1173   0.0538   0.0000   0.0000  -0.0000  -0.0000
  15 C_a :2pz    0.0321   0.0000  -0.0000   0.0289  -0.0119  -0.0051   0.0421
  16 C_a :2px   -0.0000   0.1508  -0.2101   0.0000  -0.0000   0.0000   0.0000
  17 C_a :2py   -0.0000  -0.2165   0.1996   0.0000   0.0000   0.0000  -0.0000
  18 C_a :2pz    0.3076   0.0000  -0.0000   0.0895   0.1667  -0.2240   0.1110
  19 C_a :2px    0.0000   0.0049   0.0955  -0.0000   0.0000   0.0000   0.0000
  20 C_a :2py    0.0000   0.0416   0.0827  -0.0000   0.0000  -0.0000  -0.0000
  21 C_a :2pz   -0.0090  -0.0000  -0.0000  -0.0072   0.0032  -0.0201  -0.0104
  26 C_a :3d2+  -0.0000  -0.0104  -0.0004   0.0000  -0.0000   0.0000  -0.0000
  27 C_a :3d2-  -0.0000   0.0013  -0.0200   0.0000  -0.0000   0.0000   0.0000
  30 C_a :3d1+  -0.0091  -0.0000  -0.0000   0.0110  -0.0133   0.0010   0.0131
  31 C_a :3d2+  -0.0000  -0.0022  -0.0104   0.0000   0.0000  -0.0000  -0.0000
  32 C_a :3d2-  -0.0000  -0.1151  -0.0266   0.0000   0.0000  -0.0000   0.0000
  33 C_a :3d1-   0.0233  -0.0000   0.0000  -0.0037   0.0037   0.0016   0.0011
  34 C_a :3d0    0.0000   0.0659   0.0034  -0.0000  -0.0000   0.0000  -0.0000
  35 C_a :3d1+   0.0136   0.0000   0.0000   0.0232  -0.0179  -0.0252   0.0322
  36 C_a :3d2+  -0.0000   0.0436  -0.0733   0.0000  -0.0000   0.0000  -0.0000
  37 C_a :3d2-  -0.0000   0.0775  -0.1108   0.0000   0.0000   0.0000   0.0000
  38 C_a :3d1-  -0.0372  -0.0000  -0.0000  -0.0033  -0.0267  -0.0318   0.0005
  39 C_a :3d0    0.0000   0.0301   0.0601  -0.0000  -0.0000   0.0000   0.0000
  40 C_a :3d1+   0.0723   0.0000  -0.0000   0.0115   0.0323   0.0444   0.0111
  41 C_a :3d2+  -0.0000   0.2126  -0.0419  -0.0000  -0.0000   0.0000   0.0000
  49 C_a :4f3-   0.0000  -0.0091   0.0100  -0.0000   0.0000  -0.0000   0.0000
  55 C_a :4f3+  -0.0000   0.0069  -0.0129   0.0000   0.0000  -0.0000   0.0000
  56 C_a :4f3-  -0.0000  -0.0284  -0.0036  -0.0000   0.0000  -0.0000   0.0000
  57 C_a :4f2-   0.0115   0.0000  -0.0000  -0.0027   0.0038  -0.0170  -0.0003
  58 C_a :4f1-  -0.0000  -0.0312  -0.0047   0.0000   0.0000  -0.0000   0.0000
  62 C_a :4f3+   0.0000   0.0876  -0.0706   0.0000  -0.0000   0.0000  -0.0000
  64 C_b :1s    -0.0000  -0.0342   0.0483   0.0000  -0.0000   0.0000   0.0000
  66 C_b :1s    -0.0000  -0.1279   0.1164  -0.0000  -0.0000   0.0000  -0.0000
  67 C_b :1s     0.0000   0.0181   0.0146  -0.0000   0.0000  -0.0000  -0.0000
  68 C_b :1s    -0.0000  -0.0903  -0.0227   0.0000  -0.0000   0.0000  -0.0000
  69 C_b :2px    0.0000   0.1355   0.0007   0.0000   0.0000  -0.0000  -0.0000
  70 C_b :2py   -0.0000   0.0879  -0.0765   0.0000   0.0000  -0.0000   0.0000
  71 C_b :2pz   -0.2104   0.0000   0.0000   0.2366  -0.2628  -0.0199   0.2434
  75 C_b :2px    0.0000   0.0604   0.0137  -0.0000  -0.0000   0.0000  -0.0000
  76 C_b :2py    0.0000   0.2119   0.0312  -0.0000  -0.0000   0.0000  -0.0000
  77 C_b :2pz   -0.0180  -0.0000  -0.0000   0.0107   0.0028  -0.0128   0.0074
  78 C_b :2px   -0.0000  -0.0652   0.0227   0.0000  -0.0000   0.0000  -0.0000
  79 C_b :2py   -0.0000  -0.1231   0.0976   0.0000  -0.0000   0.0000   0.0000
  80 C_b :2pz   -0.0535   0.0000   0.0000   0.0502  -0.1224   0.1962   0.1017
  81 C_b :2px   -0.0000  -0.0583  -0.0605   0.0000   0.0000  -0.0000  -0.0000
  82 C_b :2py   -0.0000   0.0315  -0.1327   0.0000  -0.0000  -0.0000  -0.0000
  83 C_b :2pz    0.0210   0.0000   0.0000  -0.0189   0.0102   0.0550  -0.0088
  92 C_b :3d1+   0.0046  -0.0000  -0.0000  -0.0057   0.0091   0.0019  -0.0137
  94 C_b :3d2-  -0.0000  -0.0765   0.0543   0.0000   0.0000  -0.0000   0.0000
  95 C_b :3d1-  -0.0097  -0.0000   0.0000   0.0441  -0.0327   0.0152   0.0383
  96 C_b :3d0    0.0000  -0.0354   0.0071  -0.0000   0.0000  -0.0000   0.0000
  97 C_b :3d1+   0.0520  -0.0000  -0.0000   0.0363  -0.0239  -0.0053   0.0470
  98 C_b :3d2+   0.0000   0.1841   0.0695   0.0000  -0.0000   0.0000   0.0000
  99 C_b :3d2-  -0.0000  -0.0428   0.0712   0.0000   0.0000  -0.0000   0.0000
 100 C_b :3d1-   0.0903   0.0000   0.0000   0.0435   0.0360   0.0086   0.0555
 101 C_b :3d0   -0.0000   0.0059  -0.0459  -0.0000   0.0000   0.0000   0.0000
 102 C_b :3d1+   0.0950   0.0000   0.0000   0.0321   0.0546   0.0347   0.0415
 103 C_b :3d2+   0.0000  -0.1495  -0.0256   0.0000   0.0000  -0.0000  -0.0000
 117 C_b :4f3+   0.0000  -0.0060  -0.0122  -0.0000   0.0000  -0.0000  -0.0000
 118 C_b :4f3-   0.0000   0.1155  -0.0371  -0.0000  -0.0000   0.0000   0.0000
 119 C_b :4f2-   0.0241  -0.0000   0.0000   0.0071  -0.0070   0.0161   0.0087
 123 C_b :4f2+   0.0016   0.0000  -0.0000  -0.0127   0.0004   0.0326  -0.0049
 124 C_b :4f3+  -0.0000  -0.0158  -0.0493   0.0000   0.0000  -0.0000  -0.0000
 126 C_c :1s     0.0000   0.0360  -0.0058  -0.0000  -0.0000   0.0000  -0.0000
 128 C_c :1s     0.0000   0.0255  -0.0346  -0.0000   0.0000   0.0000  -0.0000
 129 C_c :1s     0.0000   0.0691   0.0492  -0.0000  -0.0000  -0.0000  -0.0000
 130 C_c :1s     0.0000  -0.0189  -0.0340  -0.0000   0.0000  -0.0000  -0.0000
 131 C_c :2px    0.0000  -0.0769  -0.0256  -0.0000   0.0000  -0.0000  -0.0000
 132 C_c :2py    0.0000  -0.0910   0.0499  -0.0000  -0.0000   0.0000   0.0000
 133 C_c :2pz   -0.2917   0.0000   0.0000   0.2599  -0.1729  -0.0211  -0.0054
 137 C_c :2px   -0.0000  -0.1362  -0.0317   0.0000   0.0000  -0.0000   0.0000
 138 C_c :2py    0.0000   0.0117   0.0754  -0.0000  -0.0000   0.0000  -0.0000
 139 C_c :2pz   -0.0253   0.0000  -0.0000   0.0021   0.0155  -0.0233  -0.0196
 140 C_c :2px   -0.0000  -0.0356  -0.1381   0.0000  -0.0000   0.0000  -0.0000
 141 C_c :2py    0.0000  -0.0704   0.0841  -0.0000  -0.0000   0.0000  -0.0000
 142 C_c :2pz   -0.1454   0.0000  -0.0000   0.0892  -0.1246  -0.1227   0.0468
 143 C_c :2px    0.0000   0.0566  -0.0122   0.0000   0.0000  -0.0000   0.0000
 144 C_c :2py   -0.0000  -0.0393   0.0193  -0.0000  -0.0000   0.0000   0.0000
 145 C_c :2pz   -0.0344  -0.0000  -0.0000   0.0125  -0.0278  -0.0371   0.0231
 154 C_c :3d1+  -0.0121   0.0000   0.0000   0.0089  -0.0014  -0.0006  -0.0089
 156 C_c :3d2-   0.0000   0.0313   0.0398  -0.0000  -0.0000   0.0000   0.0000
 157 C_c :3d1-   0.0225  -0.0000   0.0000   0.0509  -0.0303  -0.0128   0.0282
 158 C_c :3d0   -0.0000   0.0205  -0.0347   0.0000   0.0000   0.0000   0.0000
 159 C_c :3d1+  -0.0414  -0.0000  -0.0000   0.0646  -0.0300  -0.0454   0.0198
 160 C_c :3d2+   0.0000   0.0849  -0.0176  -0.0000  -0.0000   0.0000   0.0000
 161 C_c :3d2-  -0.0000  -0.0352  -0.0300   0.0000  -0.0000  -0.0000   0.0000
 162 C_c :3d1-   0.1136   0.0000  -0.0000   0.0448   0.0176  -0.0446   0.0600
 163 C_c :3d0    0.0000  -0.0502   0.0530   0.0000   0.0000  -0.0000  -0.0000
 164 C_c :3d1+   0.0420   0.0000  -0.0000   0.0668  -0.0270  -0.1352   0.0718
 165 C_c :3d2+  -0.0000   0.1912  -0.0954   0.0000  -0.0000   0.0000   0.0000
 180 C_c :4f3-   0.0000   0.0363   0.0752  -0.0000   0.0000  -0.0000   0.0000
 181 C_c :4f2-   0.0216  -0.0000   0.0000   0.0107  -0.0118   0.0088   0.0023
 182 C_c :4f1-   0.0000  -0.0246   0.0084  -0.0000   0.0000  -0.0000   0.0000
 184 C_c :4f1+  -0.0000  -0.0369  -0.0113  -0.0000  -0.0000  -0.0000   0.0000
 185 C_c :4f2+   0.0021  -0.0000  -0.0000   0.0197  -0.0029   0.0041   0.0064
 186 C_c :4f3+   0.0000   0.0090  -0.0223   0.0000  -0.0000   0.0000  -0.0000
 188 C_d :1s     0.0000  -0.0243  -0.0094  -0.0000   0.0000  -0.0000   0.0000
 190 C_d :1s     0.0000   0.1842   0.0217  -0.0000  -0.0000  -0.0000   0.0000
 191 C_d :1s     0.0000   0.0343  -0.0117  -0.0000   0.0000  -0.0000  -0.0000
 192 C_d :1s     0.0000   0.0130   0.0975  -0.0000   0.0000  -0.0000   0.0000
 193 C_d :2px   -0.0000   0.0678   0.0215  -0.0000  -0.0000   0.0000   0.0000
 194 C_d :2py   -0.0000   0.0519  -0.0141  -0.0000  -0.0000   0.0000   0.0000
 195 C_d :2pz   -0.3087  -0.0000  -0.0000   0.2078  -0.0366  -0.0125  -0.1680
 199 C_d :2px   -0.0000  -0.0571  -0.0045   0.0000   0.0000  -0.0000   0.0000
 200 C_d :2py    0.0000   0.0233  -0.0962   0.0000   0.0000  -0.0000  -0.0000
 201 C_d :2pz    0.0215   0.0000   0.0000  -0.0043   0.0031   0.0319   0.0298
 202 C_d :2px   -0.0000  -0.0948   0.0507   0.0000   0.0000   0.0000  -0.0000
 203 C_d :2py    0.0000   0.0395  -0.0657  -0.0000  -0.0000  -0.0000   0.0000
 204 C_d :2pz   -0.0447  -0.0000   0.0000   0.0297  -0.0152   0.1501  -0.0862
 205 C_d :2px   -0.0000   0.0271  -0.0002  -0.0000  -0.0000   0.0000   0.0000
 206 C_d :2py    0.0000  -0.0255   0.0468  -0.0000   0.0000   0.0000   0.0000
 207 C_d :2pz   -0.0172  -0.0000  -0.0000   0.0249  -0.0113  -0.0495   0.0179
 218 C_d :3d2-  -0.0000  -0.0754   0.0654   0.0000   0.0000   0.0000   0.0000
 219 C_d :3d1-  -0.0279   0.0000  -0.0000   0.0602  -0.0146  -0.0145   0.0250
 220 C_d :3d0    0.0000   0.0393   0.0296   0.0000  -0.0000  -0.0000  -0.0000
 221 C_d :3d1+   0.0105  -0.0000  -0.0000   0.0717  -0.0145  -0.0280   0.0013
 222 C_d :3d2+  -0.0000   0.0515  -0.0575   0.0000  -0.0000  -0.0000   0.0000
 223 C_d :3d2-   0.0000  -0.0024  -0.0901   0.0000   0.0000  -0.0000  -0.0000
 224 C_d :3d1-  -0.0173   0.0000   0.0000   0.0642  -0.0322   0.0988   0.0471
 225 C_d :3d0   -0.0000  -0.0066   0.0504  -0.0000  -0.0000   0.0000   0.0000
 226 C_d :3d1+   0.0104   0.0000   0.0000   0.0727  -0.0389   0.0748   0.0898
 227 C_d :3d2+   0.0000  -0.0333  -0.0253  -0.0000  -0.0000   0.0000   0.0000
 242 C_d :4f3-   0.0000  -0.0011  -0.0110  -0.0000   0.0000  -0.0000   0.0000
 243 C_d :4f2-   0.0074  -0.0000   0.0000   0.0188   0.0025  -0.0196  -0.0233
 244 C_d :4f1-   0.0000   0.0072  -0.0166   0.0000  -0.0000   0.0000  -0.0000
 245 C_d :4f0    0.0100   0.0000  -0.0000  -0.0105   0.0012   0.0067   0.0121
 246 C_d :4f1+  -0.0000  -0.0044  -0.0150   0.0000  -0.0000   0.0000   0.0000
 247 C_d :4f2+   0.0087   0.0000   0.0000  -0.0168  -0.0024   0.0151  -0.0093
 248 C_d :4f3+   0.0000  -0.0494  -0.0525   0.0000  -0.0000   0.0000  -0.0000
 250 C_e :1s    -0.0000   0.0177  -0.0055   0.0000   0.0000   0.0000   0.0000
 252 C_e :1s     0.0000  -0.0587  -0.0812  -0.0000  -0.0000   0.0000  -0.0000
 253 C_e :1s    -0.0000   0.0383  -0.0053   0.0000   0.0000  -0.0000  -0.0000
 254 C_e :1s    -0.0000   0.0374   0.0218   0.0000   0.0000  -0.0000  -0.0000
 255 C_e :2px   -0.0000  -0.0334   0.0030   0.0000  -0.0000   0.0000   0.0000
 256 C_e :2py    0.0000  -0.0509   0.0112   0.0000   0.0000  -0.0000  -0.0000
 257 C_e :2pz   -0.3149  -0.0000  -0.0000   0.0811   0.1853   0.0041  -0.2838
 261 C_e :2px    0.0000   0.0460  -0.0113  -0.0000  -0.0000  -0.0000  -0.0000
 262 C_e :2py   -0.0000   0.0434  -0.0270   0.0000  -0.0000   0.0000   0.0000
 263 C_e :2pz   -0.0054   0.0000   0.0000  -0.0106  -0.0109   0.0352   0.0237
 264 C_e :2px    0.0000  -0.0338   0.1110  -0.0000  -0.0000   0.0000   0.0000
 265 C_e :2py   -0.0000   0.0991  -0.0668   0.0000   0.0000  -0.0000  -0.0000
 266 C_e :2pz   -0.0341  -0.0000  -0.0000   0.0484   0.1142  -0.1094  -0.1152
 267 C_e :2px   -0.0000  -0.0553   0.0008  -0.0000  -0.0000   0.0000   0.0000
 268 C_e :2py   -0.0000   0.0140  -0.0480   0.0000   0.0000  -0.0000  -0.0000
 269 C_e :2pz    0.0952   0.0000   0.0000  -0.0102   0.0509   0.1030  -0.0138
 276 C_e :3d1-   0.0102  -0.0000   0.0000  -0.0049  -0.0002   0.0005   0.0066
 278 C_e :3d1+  -0.0108  -0.0000   0.0000  -0.0004   0.0113   0.0008  -0.0075
 280 C_e :3d2-  -0.0000  -0.0612  -0.0332   0.0000   0.0000  -0.0000   0.0000
 281 C_e :3d1-   0.0295   0.0000  -0.0000   0.0769   0.0031  -0.0124  -0.0007
 282 C_e :3d0    0.0000  -0.0280  -0.0122  -0.0000  -0.0000  -0.0000  -0.0000
 283 C_e :3d1+  -0.0333   0.0000  -0.0000   0.0873  -0.0135   0.0045   0.0354
 284 C_e :3d2+  -0.0000   0.0499   0.0346   0.0000   0.0000   0.0000  -0.0000
 285 C_e :3d2-   0.0000  -0.1394   0.1422  -0.0000   0.0000  -0.0000  -0.0000
 286 C_e :3d1-  -0.0008   0.0000  -0.0000   0.0643  -0.0378  -0.0352   0.0201
 287 C_e :3d0   -0.0000   0.0534  -0.1149  -0.0000  -0.0000   0.0000   0.0000
 288 C_e :3d1+   0.0227  -0.0000  -0.0000   0.1026  -0.0034  -0.0658   0.0084
 289 C_e :3d2+  -0.0000   0.0241  -0.0682   0.0000  -0.0000   0.0000   0.0000
 304 C_e :4f3-   0.0000   0.0102   0.0184  -0.0000   0.0000  -0.0000  -0.0000
 305 C_e :4f2-   0.0183  -0.0000  -0.0000   0.0043   0.0253  -0.0118  -0.0414
 307 C_e :4f0    0.0058   0.0000   0.0000  -0.0055  -0.0121   0.0090   0.0182
 309 C_e :4f2+   0.0008   0.0000  -0.0000   0.0202   0.0093   0.0017   0.0035
 310 C_e :4f3+  -0.0000  -0.0809  -0.0484   0.0000   0.0000   0.0000   0.0000
 314 C_f :1s     0.0000  -0.0842  -0.0194  -0.0000  -0.0000  -0.0000  -0.0000
 315 C_f :1s     0.0000   0.0117   0.0538  -0.0000  -0.0000   0.0000  -0.0000
 316 C_f :1s    -0.0000   0.0199   0.0058   0.0000  -0.0000   0.0000   0.0000
 317 C_f :2px    0.0000   0.0294  -0.0013  -0.0000   0.0000  -0.0000  -0.0000
 318 C_f :2py    0.0000   0.0281   0.0000  -0.0000   0.0000  -0.0000  -0.0000
 319 C_f :2pz   -0.2946  -0.0000  -0.0000  -0.0231   0.2644   0.0140  -0.1863
 323 C_f :2px    0.0000  -0.0228  -0.0140  -0.0000  -0.0000   0.0000  -0.0000
 324 C_f :2py   -0.0000  -0.0315   0.0388  -0.0000  -0.0000   0.0000   0.0000
 325 C_f :2pz   -0.0133   0.0000   0.0000  -0.0058  -0.0252  -0.0025  -0.0024
 327 C_f :2py   -0.0000   0.1694  -0.1532  -0.0000  -0.0000  -0.0000   0.0000
 328 C_f :2pz   -0.0182  -0.0000  -0.0000  -0.0166   0.0819  -0.0251  -0.1316
 329 C_f :2px    0.0000   0.0059  -0.0258   0.0000   0.0000  -0.0000  -0.0000
 330 C_f :2py   -0.0000  -0.0223  -0.0503   0.0000  -0.0000   0.0000  -0.0000
 331 C_f :2pz   -0.0364  -0.0000  -0.0000  -0.0125  -0.0140  -0.0149  -0.0264
 340 C_f :3d1+   0.0111  -0.0000   0.0000  -0.0034  -0.0065   0.0005   0.0151
 342 C_f :3d2-   0.0000   0.0157  -0.0095  -0.0000  -0.0000   0.0000   0.0000
 343 C_f :3d1-  -0.0651   0.0000   0.0000   0.0654  -0.0209   0.0035   0.0280
 344 C_f :3d0   -0.0000   0.0135  -0.0090   0.0000   0.0000   0.0000   0.0000
 345 C_f :3d1+  -0.0047   0.0000  -0.0000   0.0922   0.0009   0.0043   0.0180
 346 C_f :3d2+   0.0000   0.0801  -0.0211  -0.0000  -0.0000   0.0000   0.0000
 347 C_f :3d2-   0.0000   0.0946  -0.0310  -0.0000  -0.0000  -0.0000   0.0000
 348 C_f :3d1-   0.0170  -0.0000  -0.0000   0.0907   0.0359  -0.0018  -0.0001
 349 C_f :3d0    0.0000  -0.0391   0.0528   0.0000   0.0000  -0.0000  -0.0000
 350 C_f :3d1+   0.0317  -0.0000  -0.0000   0.0959   0.0273  -0.0195   0.0009
 351 C_f :3d2+  -0.0000   0.0393   0.0579   0.0000   0.0000  -0.0000  -0.0000
 366 C_f :4f3-   0.0000   0.0028   0.0196  -0.0000  -0.0000  -0.0000  -0.0000
 367 C_f :4f2-   0.0179   0.0000  -0.0000   0.0099   0.0334  -0.0016  -0.0185
 369 C_f :4f0    0.0046   0.0000   0.0000  -0.0029  -0.0173   0.0017   0.0087
 371 C_f :4f2+   0.0134  -0.0000  -0.0000  -0.0130   0.0059  -0.0017  -0.0140
 372 C_f :4f3+  -0.0000  -0.0220   0.0138   0.0000   0.0000   0.0000  -0.0000
 376 C_g :1s     0.0000   0.0342   0.0091  -0.0000   0.0000  -0.0000  -0.0000
 377 C_g :1s     0.0000   0.0002  -0.0128  -0.0000  -0.0000   0.0000  -0.0000
 378 C_g :1s    -0.0000  -0.0604  -0.0103   0.0000   0.0000  -0.0000  -0.0000
 379 C_g :2px   -0.0000  -0.0171   0.0021   0.0000   0.0000  -0.0000   0.0000
 380 C_g :2py   -0.0000  -0.0272   0.0004  -0.0000  -0.0000   0.0000   0.0000
 381 C_g :2pz   -0.2584   0.0000  -0.0000  -0.1705   0.2630   0.0219   0.0977
 385 C_g :2px   -0.0000  -0.0403   0.0309   0.0000   0.0000   0.0000  -0.0000
 386 C_g :2py   -0.0000  -0.0271   0.0057  -0.0000   0.0000   0.0000   0.0000
 387 C_g :2pz    0.0218  -0.0000   0.0000   0.0046  -0.0057  -0.0124   0.0064
 388 C_g :2px    0.0000  -0.0365  -0.0142   0.0000   0.0000  -0.0000  -0.0000
 389 C_g :2py   -0.0000   0.0174  -0.0037  -0.0000  -0.0000   0.0000   0.0000
 390 C_g :2pz   -0.1123   0.0000  -0.0000  -0.0389   0.0434   0.0883   0.0739
 391 C_g :2px    0.0000   0.0175  -0.0140   0.0000   0.0000  -0.0000  -0.0000
 392 C_g :2py    0.0000   0.0278   0.0500  -0.0000   0.0000  -0.0000   0.0000
 393 C_g :2pz   -0.1144  -0.0000  -0.0000  -0.0059  -0.0488  -0.1036  -0.0214
 402 C_g :3d1+  -0.0080  -0.0000  -0.0000  -0.0086   0.0060   0.0007   0.0122
 404 C_g :3d2-  -0.0000   0.0142  -0.0247  -0.0000  -0.0000   0.0000   0.0000
 405 C_g :3d1-  -0.0109   0.0000   0.0000   0.0730   0.0173   0.0030   0.0148
 407 C_g :3d1+  -0.0643   0.0000   0.0000   0.0742   0.0123  -0.0074   0.0171
 408 C_g :3d2+   0.0000   0.0048  -0.0292  -0.0000  -0.0000   0.0000   0.0000
 409 C_g :3d2-  -0.0000  -0.0799   0.0814   0.0000  -0.0000   0.0000   0.0000
 410 C_g :3d1-  -0.0135  -0.0000  -0.0000   0.0786   0.0256   0.0014  -0.0335
 411 C_g :3d0    0.0000   0.0014   0.0214  -0.0000   0.0000  -0.0000  -0.0000
 412 C_g :3d1+  -0.0648  -0.0000  -0.0000   0.0938   0.0365   0.0090  -0.0141
 413 C_g :3d2+   0.0000  -0.1015   0.0719  -0.0000   0.0000  -0.0000  -0.0000
 428 C_g :4f3-   0.0000   0.0403   0.0145  -0.0000   0.0000  -0.0000   0.0000
 429 C_g :4f2-   0.0145   0.0000  -0.0000  -0.0069   0.0240   0.0072   0.0062
 431 C_g :4f0    0.0090  -0.0000   0.0000   0.0069  -0.0129  -0.0058  -0.0049
 433 C_g :4f2+  -0.0051   0.0000   0.0000   0.0142   0.0061   0.0051   0.0147
 438 C_h :1s    -0.0000  -0.0067   0.0399  -0.0000  -0.0000   0.0000   0.0000
 439 C_h :1s    -0.0000  -0.0281   0.0257   0.0000   0.0000  -0.0000  -0.0000
 440 C_h :1s     0.0000   0.0424   0.0016  -0.0000  -0.0000   0.0000   0.0000
 441 C_h :2px    0.0000   0.0146  -0.0019   0.0000   0.0000   0.0000  -0.0000
 442 C_h :2py   -0.0000   0.0144  -0.0003  -0.0000  -0.0000   0.0000  -0.0000
 443 C_h :2pz   -0.2220   0.0000  -0.0000  -0.2423   0.1667   0.0182   0.2354
 447 C_h :2px   -0.0000   0.0048   0.0431   0.0000   0.0000  -0.0000  -0.0000
 448 C_h :2py    0.0000   0.0181   0.0300  -0.0000  -0.0000  -0.0000  -0.0000
 449 C_h :2pz    0.0033  -0.0000   0.0000   0.0106   0.0015  -0.0092  -0.0256
 450 C_h :2px   -0.0000  -0.0181   0.0288   0.0000   0.0000   0.0000  -0.0000
 451 C_h :2py   -0.0000   0.0042   0.0624  -0.0000  -0.0000   0.0000   0.0000
 452 C_h :2pz   -0.0237   0.0000  -0.0000  -0.0374   0.0781  -0.0290   0.1193
 453 C_h :2px   -0.0000  -0.0087   0.0287  -0.0000  -0.0000   0.0000   0.0000
 454 C_h :2py   -0.0000   0.0586   0.0370   0.0000   0.0000  -0.0000   0.0000
 455 C_h :2pz    0.0921   0.0000   0.0000   0.0001   0.0439   0.0633   0.0236
 464 C_h :3d1+   0.0090   0.0000  -0.0000   0.0060  -0.0117  -0.0009  -0.0019
 466 C_h :3d2-  -0.0000   0.0188   0.0086   0.0000   0.0000  -0.0000   0.0000
 467 C_h :3d1-  -0.0448  -0.0000   0.0000   0.0533   0.0262  -0.0143  -0.0013
 469 C_h :3d1+   0.0025   0.0000   0.0000   0.0916   0.0437  -0.0083   0.0365
 471 C_h :3d2-   0.0000  -0.0399   0.0315  -0.0000   0.0000  -0.0000   0.0000
 472 C_h :3d1-  -0.0231   0.0000  -0.0000   0.0584   0.0656  -0.0257   0.0231
 473 C_h :3d0   -0.0000   0.0151  -0.0295   0.0000  -0.0000   0.0000  -0.0000
 474 C_h :3d1+  -0.0114  -0.0000  -0.0000   0.0909   0.0493  -0.0312  -0.0026
 475 C_h :3d2+  -0.0000   0.0619  -0.0907   0.0000  -0.0000   0.0000   0.0000
 490 C_h :4f3-   0.0000  -0.0000   0.0100  -0.0000   0.0000  -0.0000  -0.0000
 491 C_h :4f2-   0.0163   0.0000   0.0000  -0.0005   0.0180   0.0060   0.0341
 493 C_h :4f0    0.0055  -0.0000   0.0000   0.0094  -0.0085  -0.0042  -0.0167
 495 C_h :4f2+   0.0082  -0.0000  -0.0000  -0.0149   0.0033   0.0074   0.0007
 496 C_h :4f3+  -0.0000  -0.0046  -0.0140  -0.0000  -0.0000   0.0000   0.0000
 500 C_i :1s     0.0000  -0.0653  -0.0890  -0.0000   0.0000  -0.0000  -0.0000
 501 C_i :1s     0.0000   0.0214   0.0072  -0.0000   0.0000  -0.0000  -0.0000
 504 C_i :2py    0.0000  -0.0141   0.0004   0.0000   0.0000  -0.0000  -0.0000
 505 C_i :2pz   -0.1728  -0.0000   0.0000  -0.3068  -0.0418   0.0039   0.2663
 509 C_i :2px    0.0000   0.0233  -0.0343  -0.0000  -0.0000   0.0000   0.0000
 510 C_i :2py    0.0000   0.0443   0.0210  -0.0000  -0.0000   0.0000   0.0000
 511 C_i :2pz   -0.0224   0.0000  -0.0000   0.0045  -0.0143  -0.0000  -0.0309
 512 C_i :2px   -0.0000   0.0936  -0.0851  -0.0000  -0.0000   0.0000   0.0000
 513 C_i :2py    0.0000  -0.0193  -0.0240  -0.0000   0.0000  -0.0000  -0.0000
 514 C_i :2pz    0.0481  -0.0000   0.0000  -0.0799   0.0153   0.0324   0.1285
 515 C_i :2px   -0.0000  -0.0060   0.0279   0.0000  -0.0000   0.0000   0.0000
 516 C_i :2py   -0.0000  -0.0588  -0.0473   0.0000  -0.0000   0.0000   0.0000
 517 C_i :2pz    0.0783   0.0000   0.0000   0.0224   0.0284   0.0539   0.0526
 526 C_i :3d1+  -0.0049  -0.0000  -0.0000  -0.0103  -0.0075  -0.0004   0.0049
 528 C_i :3d2-  -0.0000   0.0179  -0.0033   0.0000   0.0000  -0.0000   0.0000
 529 C_i :3d1-   0.0010  -0.0000   0.0000   0.0624   0.0445  -0.0062   0.0398
 531 C_i :3d1+  -0.0688   0.0000   0.0000   0.0439   0.0359  -0.0086   0.0083
 532 C_i :3d2+   0.0000   0.0124   0.0163   0.0000   0.0000  -0.0000  -0.0000
 533 C_i :3d2-  -0.0000   0.0685  -0.0832   0.0000   0.0000  -0.0000   0.0000
 534 C_i :3d1-  -0.0350   0.0000  -0.0000   0.0707   0.0729   0.0142   0.0637
 536 C_i :3d1+  -0.0367   0.0000  -0.0000   0.0547   0.1005   0.0312   0.0900
 537 C_i :3d2+  -0.0000   0.0372  -0.0002  -0.0000  -0.0000   0.0000   0.0000
 552 C_i :4f3-   0.0000   0.0186   0.0017  -0.0000  -0.0000   0.0000   0.0000
 553 C_i :4f2-   0.0315  -0.0000   0.0000  -0.0076   0.0084   0.0038   0.0372
 555 C_i :4f0   -0.0044   0.0000  -0.0000   0.0113  -0.0014   0.0001  -0.0185
 557 C_i :4f2+   0.0006   0.0000   0.0000   0.0152   0.0038  -0.0007   0.0160
 558 C_i :4f3+  -0.0000  -0.0112  -0.0043   0.0000   0.0000  -0.0000   0.0000
 562 C_j :1s     0.0000  -0.0107   0.0173  -0.0000  -0.0000   0.0000  -0.0000
 563 C_j :1s     0.0000   0.0608  -0.0350  -0.0000  -0.0000  -0.0000  -0.0000
 564 C_j :1s     0.0000   0.0589   0.0066  -0.0000   0.0000  -0.0000   0.0000
 567 C_j :2pz   -0.1355  -0.0000   0.0000  -0.3049  -0.1727  -0.0076   0.1342
 571 C_j :2px   -0.0000   0.0029  -0.0441  -0.0000  -0.0000   0.0000   0.0000
 573 C_j :2pz    0.0027   0.0000  -0.0000   0.0024   0.0152   0.0050  -0.0023
 574 C_j :2px    0.0000  -0.0952   0.0865   0.0000   0.0000  -0.0000  -0.0000
 575 C_j :2py    0.0000  -0.0095  -0.0690   0.0000   0.0000  -0.0000   0.0000
 576 C_j :2pz   -0.0458  -0.0000   0.0000  -0.0690  -0.0526  -0.0424   0.0235
 577 C_j :2px   -0.0000  -0.0031  -0.0415   0.0000   0.0000  -0.0000  -0.0000
 578 C_j :2py    0.0000  -0.0485  -0.0266   0.0000  -0.0000  -0.0000   0.0000
 579 C_j :2pz   -0.1034  -0.0000  -0.0000  -0.0020  -0.0446  -0.0573  -0.0098
 588 C_j :3d1+   0.0058  -0.0000  -0.0000   0.0113  -0.0002  -0.0003  -0.0141
 590 C_j :3d2-   0.0000   0.0231  -0.0124  -0.0000  -0.0000   0.0000   0.0000
 591 C_j :3d1-  -0.0669   0.0000  -0.0000   0.0147   0.0219  -0.0014   0.0013
 593 C_j :3d1+  -0.0439   0.0000   0.0000   0.0493   0.0267  -0.0014   0.0148
 594 C_j :3d2+   0.0000  -0.0141   0.0024  -0.0000  -0.0000   0.0000  -0.0000
 595 C_j :3d2-  -0.0000   0.0009  -0.0274   0.0000  -0.0000   0.0000  -0.0000
 596 C_j :3d1-  -0.0297  -0.0000  -0.0000   0.0077   0.0351  -0.0170   0.0496
 598 C_j :3d1+  -0.0509  -0.0000  -0.0000   0.0382   0.0724   0.0055   0.0668
 599 C_j :3d2+   0.0000  -0.0333   0.0208  -0.0000   0.0000  -0.0000  -0.0000
 615 C_j :4f2-   0.0099  -0.0000   0.0000  -0.0027  -0.0106  -0.0009   0.0160
 617 C_j :4f0    0.0033   0.0000  -0.0000   0.0118   0.0106   0.0008  -0.0065
 619 C_j :4f2+   0.0132  -0.0000   0.0000  -0.0155  -0.0040   0.0032   0.0048
 624 C_k :1s    -0.0000   0.0184   0.0095   0.0000   0.0000  -0.0000   0.0000
 625 C_k :1s    -0.0000  -0.0545   0.0332   0.0000  -0.0000   0.0000   0.0000
 626 C_k :1s    -0.0000  -0.0665   0.0081   0.0000  -0.0000   0.0000  -0.0000
 629 C_k :2pz   -0.0887   0.0000   0.0000  -0.2620  -0.2973  -0.0207  -0.1518
 633 C_k :2px   -0.0000   0.0217   0.0086   0.0000   0.0000   0.0000   0.0000
 634 C_k :2py   -0.0000   0.0152   0.0026   0.0000   0.0000  -0.0000  -0.0000
 635 C_k :2pz    0.0227  -0.0000  -0.0000   0.0200   0.0467   0.0005   0.0216
 636 C_k :2px    0.0000  -0.0702   0.0605  -0.0000   0.0000  -0.0000  -0.0000
 637 C_k :2py   -0.0000  -0.0425   0.0275   0.0000  -0.0000   0.0000   0.0000
 638 C_k :2pz   -0.0820   0.0000   0.0000  -0.0799  -0.1725   0.0129  -0.1027
 639 C_k :2px    0.0000   0.0121  -0.0293  -0.0000   0.0000  -0.0000   0.0000
 640 C_k :2py    0.0000   0.0691   0.0260  -0.0000   0.0000  -0.0000  -0.0000
 641 C_k :2pz   -0.0255  -0.0000   0.0000  -0.0237  -0.0096  -0.0110  -0.0527
 650 C_k :3d1+  -0.0018  -0.0000   0.0000  -0.0057  -0.0097  -0.0008  -0.0120
 652 C_k :3d2-  -0.0000  -0.0239  -0.0056   0.0000  -0.0000   0.0000   0.0000
 653 C_k :3d1-  -0.0125   0.0000  -0.0000   0.0242   0.0109   0.0001   0.0041
 655 C_k :3d1+  -0.0362   0.0000  -0.0000   0.0201   0.0426  -0.0038   0.0335
 657 C_k :3d2-   0.0000  -0.0508   0.0208  -0.0000  -0.0000  -0.0000  -0.0000
 658 C_k :3d1-   0.0102  -0.0000  -0.0000   0.0175   0.0648  -0.0254   0.0611
 660 C_k :3d1+  -0.0248  -0.0000  -0.0000   0.0085   0.0308  -0.0167   0.0883
 661 C_k :3d2+  -0.0000   0.0296  -0.0274   0.0000  -0.0000   0.0000   0.0000
 676 C_k :4f3-   0.0000   0.0192   0.0082  -0.0000   0.0000  -0.0000   0.0000
 677 C_k :4f2-   0.0112  -0.0000   0.0000  -0.0123  -0.0325  -0.0006  -0.0240
 679 C_k :4f0    0.0038  -0.0000  -0.0000   0.0097   0.0202   0.0008   0.0101
 681 C_k :4f2+  -0.0046   0.0000  -0.0000   0.0137   0.0007   0.0001   0.0015
 686 C_l :1s     0.0000   0.0143  -0.0290  -0.0000   0.0000   0.0000  -0.0000
 687 C_l :1s    -0.0000   0.0346  -0.0211   0.0000   0.0000   0.0000  -0.0000
 688 C_l :1s    -0.0000   0.0374  -0.0172   0.0000   0.0000  -0.0000  -0.0000
 691 C_l :2pz   -0.0552   0.0000   0.0000  -0.1935  -0.2836  -0.0217  -0.2623
 695 C_l :2px    0.0000   0.0138  -0.0000  -0.0000   0.0000   0.0000   0.0000
 697 C_l :2pz   -0.0181  -0.0000  -0.0000  -0.0243  -0.0041   0.0010   0.0135
 698 C_l :2px    0.0000   0.0324  -0.0835  -0.0000  -0.0000  -0.0000  -0.0000
 699 C_l :2py    0.0000   0.0595  -0.0439  -0.0000  -0.0000   0.0000   0.0000
[...]
      ----------------------------------------------------------------
         1    8.19778D-02  0.00D+00  8.20D-02  3.61D+01    0.00000D+00
         2    8.52302D-02  0.00D+00  8.52D-02  3.75D+01    1.90000D-02
         3    9.64607D-02  0.00D+00  9.65D-02  4.20D+01    3.80000D-02

 ** RSPCTL MICROITERATION NUMBER    7

       No.  Residual tot.,    conf., and orb.    Bnorm      Frequency 
      ----------------------------------------------------------------
         1    2.91252D-02  0.00D+00  2.91D-02  3.61D+01    0.00000D+00
         2    3.03921D-02  0.00D+00  3.04D-02  3.75D+01    1.90000D-02
         3    3.47909D-02  0.00D+00  3.48D-02  4.20D+01    3.80000D-02

 *** THE REQUESTED    3 SOLUTION VECTORS CONVERGED

 Convergence of RSP solution vectors, threshold = 1.00D-03
 ---------------------------------------------------------------
 (dimension of paired reduced space:   42)
 RSP solution vector no.    1; norm of residual   8.07D-04
 RSP solution vector no.    2; norm of residual   8.11D-04
 RSP solution vector no.    3; norm of residual   8.27D-04

 *** RSPCTL MICROITERATIONS CONVERGED

@ QRLRVE: SINGLET SOLUTION FOR SYMMETRY    1  ( A  )    LABEL   YDIPLEN     FREQUENCY   0.000000D+00

@ QRLRVE:  << XDIPLEN  ; YDIPLEN  >> (   0.00000):     381.070006519    

@ QRLRVE:  << YDIPLEN  ; YDIPLEN  >> (   0.00000):     413.797885470    

@ QRLRVE:  << ZDIPLEN  ; YDIPLEN  >> (   0.00000):    1.481370082386E-15

@ QRLRVE: SINGLET SOLUTION FOR SYMMETRY    1  ( A  )    LABEL   YDIPLEN     FREQUENCY   0.190000D-01

@ QRLRVE:  << XDIPLEN  ; YDIPLEN  >> (   0.01900):     391.898517791    

@ QRLRVE:  << YDIPLEN  ; YDIPLEN  >> (   0.01900):     421.169081887    

@ QRLRVE:  << ZDIPLEN  ; YDIPLEN  >> (   0.01900):    1.591190792416E-15

@ QRLRVE: SINGLET SOLUTION FOR SYMMETRY    1  ( A  )    LABEL   YDIPLEN     FREQUENCY   0.380000D-01

@ QRLRVE:  << XDIPLEN  ; YDIPLEN  >> (   0.03800):     428.433217229    

@ QRLRVE:  << YDIPLEN  ; YDIPLEN  >> (   0.03800):     445.968217663    

@ QRLRVE:  << ZDIPLEN  ; YDIPLEN  >> (   0.03800):    1.995680002243E-15


 QRLRVE -- linear response calculation for symmetry  1  ( A  )
 QRLRVE -- operator label : ZDIPLEN 
 QRLRVE -- operator spin  :   0
 QRLRVE -- frequencies :  0.000000  0.019000  0.038000



 ---  SOLVING SETS OF LINEAR EQUATIONS FOR LINEAR RESPONSE PROPERTIES ---

 Operator symmetry = 1  ( A  ); triplet =   F


 ** RSPCTL MICROITERATION NUMBER    1

       No.  Residual tot.,    conf., and orb.    Bnorm      Frequency 
      ----------------------------------------------------------------
         1    3.44994D+00  0.00D+00  3.45D+00  8.63D+00    0.00000D+00
         2    3.45278D+00  0.00D+00  3.45D+00  8.66D+00    1.90000D-02
         3    3.46136D+00  0.00D+00  3.46D+00  8.73D+00    3.80000D-02

 ** RSPCTL MICROITERATION NUMBER    2

       No.  Residual tot.,    conf., and orb.    Bnorm      Frequency 
      ----------------------------------------------------------------
         1    8.57496D-01  0.00D+00  8.57D-01  9.04D+00    0.00000D+00
         2    8.59596D-01  0.00D+00  8.60D-01  9.07D+00    1.90000D-02
         3    8.65969D-01  0.00D+00  8.66D-01  9.15D+00    3.80000D-02

 ** RSPCTL MICROITERATION NUMBER    3

       No.  Residual tot.,    conf., and orb.    Bnorm      Frequency 
      ----------------------------------------------------------------
         1    1.73207D-01  0.00D+00  1.73D-01  9.07D+00    0.00000D+00
         2    1.74278D-01  0.00D+00  1.74D-01  9.10D+00    1.90000D-02
         3    1.77549D-01  0.00D+00  1.78D-01  9.19D+00    3.80000D-02

 ** RSPCTL MICROITERATION NUMBER    4

       No.  Residual tot.,    conf., and orb.    Bnorm      Frequency 
      ----------------------------------------------------------------
         1    5.17583D-02  0.00D+00  5.18D-02  9.08D+00    0.00000D+00
         2    5.25370D-02  0.00D+00  5.25D-02  9.11D+00    1.90000D-02
         3    5.49747D-02  0.00D+00  5.50D-02  9.19D+00    3.80000D-02

 ** RSPCTL MICROITERATION NUMBER    5

       No.  Residual tot.,    conf., and orb.    Bnorm      Frequency 
      ----------------------------------------------------------------
         1    1.91584D-02  0.00D+00  1.92D-02  9.08D+00    0.00000D+00
         2    1.96949D-02  0.00D+00  1.97D-02  9.11D+00    1.90000D-02
         3    2.13901D-02  0.00D+00  2.14D-02  9.20D+00    3.80000D-02

 ** RSPCTL MICROITERATION NUMBER    6

       No.  Residual tot.,    conf., and orb.    Bnorm      Frequency 
      ----------------------------------------------------------------
         1    7.13619D-03  0.00D+00  7.14D-03  9.08D+00    0.00000D+00
         2    7.40763D-03  0.00D+00  7.41D-03  9.11D+00    1.90000D-02
         3    8.27605D-03  0.00D+00  8.28D-03  9.20D+00    3.80000D-02

 *** THE REQUESTED    3 SOLUTION VECTORS CONVERGED

 Convergence of RSP solution vectors, threshold = 1.00D-03
 ---------------------------------------------------------------
 (dimension of paired reduced space:   36)
 RSP solution vector no.    1; norm of residual   7.86D-04
 RSP solution vector no.    2; norm of residual   8.13D-04
 RSP solution vector no.    3; norm of residual   9.00D-04

 *** RSPCTL MICROITERATIONS CONVERGED

@ QRLRVE: SINGLET SOLUTION FOR SYMMETRY    1  ( A  )    LABEL   ZDIPLEN     FREQUENCY   0.000000D+00

@ QRLRVE:  << XDIPLEN  ; ZDIPLEN  >> (   0.00000):   -9.655027173066E-15

@ QRLRVE:  << YDIPLEN  ; ZDIPLEN  >> (   0.00000):    2.253538132462E-15

@ QRLRVE:  << ZDIPLEN  ; ZDIPLEN  >> (   0.00000):     118.205846861    

@ QRLRVE: SINGLET SOLUTION FOR SYMMETRY    1  ( A  )    LABEL   ZDIPLEN     FREQUENCY   0.190000D-01

@ QRLRVE:  << XDIPLEN  ; ZDIPLEN  >> (   0.01900):   -1.011656417386E-14

@ QRLRVE:  << YDIPLEN  ; ZDIPLEN  >> (   0.01900):    2.462261179410E-15

@ QRLRVE:  << ZDIPLEN  ; ZDIPLEN  >> (   0.01900):     118.356379353    

@ QRLRVE: SINGLET SOLUTION FOR SYMMETRY    1  ( A  )    LABEL   ZDIPLEN     FREQUENCY   0.380000D-01

@ QRLRVE:  << XDIPLEN  ; ZDIPLEN  >> (   0.03800):   -1.160947642386E-14

@ QRLRVE:  << YDIPLEN  ; ZDIPLEN  >> (   0.03800):    3.149011651999E-15

@ QRLRVE:  << ZDIPLEN  ; ZDIPLEN  >> (   0.03800):     118.812194789    
 
 ======================================================================
 ---  L I N E A R   R E S P O N S E   F U N C T I O N S --- 
 ======================================================================

 The -<<A;B>>(omega_b) functions from vectors generated
 in a *QUADRA calculation of <<A;B,C>>(omega_b,omega_c)

 Note: the accuracy of off-diagonal elements will be linear
 in the convergence threshold THCLR =  1.00D-03


 Perturbation symmetry.     KSYMOP:           1
 Perturbation spin symmetry.TRPLET:           F
 Orbital variables.         KZWOPT:       95290
 Configuration variables.   KZCONF:           0
 Total number of variables. KZVAR :       95290

@ Singlet linear response function in a.u.

@ A operator, symmetry, frequency:   XDIPLEN    1 -0.000000
@ B operator, symmetry, frequency:   XDIPLEN    1  0.000000

@ Value of linear response -<<A;B>>(omega):     748.823033016320

@ Singlet linear response function in a.u.

@ A operator, symmetry, frequency:   YDIPLEN    1 -0.000000
@ B operator, symmetry, frequency:   XDIPLEN    1  0.000000

@ Value of linear response -<<A;B>>(omega):     381.058578190028

@ Singlet linear response function in a.u.

@ A operator, symmetry, frequency:   ZDIPLEN    1 -0.000000
@ B operator, symmetry, frequency:   XDIPLEN    1  0.000000

@ Value of linear response -<<A;B>>(omega):      -0.000000000000

@ Singlet linear response function in a.u.

@ A operator, symmetry, frequency:   XDIPLEN    1 -0.019000
@ B operator, symmetry, frequency:   XDIPLEN    1  0.019000

@ Value of linear response -<<A;B>>(omega):     765.548583322905

@ Singlet linear response function in a.u.

@ A operator, symmetry, frequency:   YDIPLEN    1 -0.019000
@ B operator, symmetry, frequency:   XDIPLEN    1  0.019000

@ Value of linear response -<<A;B>>(omega):     391.886398480749

@ Singlet linear response function in a.u.

@ A operator, symmetry, frequency:   ZDIPLEN    1 -0.019000
@ B operator, symmetry, frequency:   XDIPLEN    1  0.019000

@ Value of linear response -<<A;B>>(omega):      -0.000000000000

@ Singlet linear response function in a.u.

@ A operator, symmetry, frequency:   XDIPLEN    1 -0.000000
@ B operator, symmetry, frequency:   YDIPLEN    1  0.000000

@ Value of linear response -<<A;B>>(omega):     381.070006518524

@ Singlet linear response function in a.u.

@ A operator, symmetry, frequency:   YDIPLEN    1 -0.000000
@ B operator, symmetry, frequency:   YDIPLEN    1  0.000000

@ Value of linear response -<<A;B>>(omega):     413.797885470150

@ Singlet linear response function in a.u.

@ A operator, symmetry, frequency:   ZDIPLEN    1 -0.000000
@ B operator, symmetry, frequency:   YDIPLEN    1  0.000000

@ Value of linear response -<<A;B>>(omega):       0.000000000000

@ Singlet linear response function in a.u.

@ A operator, symmetry, frequency:   XDIPLEN    1 -0.019000
@ B operator, symmetry, frequency:   YDIPLEN    1  0.019000

@ Value of linear response -<<A;B>>(omega):     391.898517790798

@ Singlet linear response function in a.u.

@ A operator, symmetry, frequency:   YDIPLEN    1 -0.019000
@ B operator, symmetry, frequency:   YDIPLEN    1  0.019000

@ Value of linear response -<<A;B>>(omega):     421.169081887062

@ Singlet linear response function in a.u.

@ A operator, symmetry, frequency:   ZDIPLEN    1 -0.019000
@ B operator, symmetry, frequency:   YDIPLEN    1  0.019000

@ Value of linear response -<<A;B>>(omega):       0.000000000000

@ Singlet linear response function in a.u.

@ A operator, symmetry, frequency:   XDIPLEN    1 -0.000000
@ B operator, symmetry, frequency:   ZDIPLEN    1  0.000000

@ Value of linear response -<<A;B>>(omega):      -0.000000000000

@ Singlet linear response function in a.u.

@ A operator, symmetry, frequency:   YDIPLEN    1 -0.000000
@ B operator, symmetry, frequency:   ZDIPLEN    1  0.000000

@ Value of linear response -<<A;B>>(omega):       0.000000000000

@ Singlet linear response function in a.u.

@ A operator, symmetry, frequency:   ZDIPLEN    1 -0.000000
@ B operator, symmetry, frequency:   ZDIPLEN    1  0.000000

@ Value of linear response -<<A;B>>(omega):     118.205846860751

@ Singlet linear response function in a.u.

@ A operator, symmetry, frequency:   XDIPLEN    1 -0.019000
@ B operator, symmetry, frequency:   ZDIPLEN    1  0.019000

@ Value of linear response -<<A;B>>(omega):      -0.000000000000

@ Singlet linear response function in a.u.

@ A operator, symmetry, frequency:   YDIPLEN    1 -0.019000
@ B operator, symmetry, frequency:   ZDIPLEN    1  0.019000

@ Value of linear response -<<A;B>>(omega):       0.000000000000

@ Singlet linear response function in a.u.

@ A operator, symmetry, frequency:   ZDIPLEN    1 -0.019000
@ B operator, symmetry, frequency:   ZDIPLEN    1  0.019000

@ Value of linear response -<<A;B>>(omega):     118.356379353175


  Results from quadratic response calculation
 --------------------------------------------

@ B-freq = 0.000000  C-freq = 0.000000     beta(X;X,X) =  12336.47544360
@ B-freq = 0.000000  C-freq = 0.000000     beta(Y;X,X) =  12418.19165524
@ B-freq = 0.000000  C-freq = 0.000000     beta(Z;X,X) =     -0.00000000
@ B-freq = 0.019000  C-freq = 0.000000     beta(X;X,X) =  13209.35011489
@ B-freq = 0.019000  C-freq = 0.000000     beta(Y;X,X) =  13137.88861713
@ B-freq = 0.019000  C-freq = 0.000000     beta(Z;X,X) =     -0.00000000
@ B-freq = 0.000000  C-freq = 0.000000     beta(X;Y,X) = beta(Y,X,X)
@ B-freq = 0.000000  C-freq = 0.000000     beta(X;Y,X) =  12418.19025653
@ B-freq = 0.000000  C-freq = 0.000000     beta(Y;Y,X) =  11454.40954570
@ B-freq = 0.000000  C-freq = 0.000000     beta(Z;Y,X) =     -0.00000000
@ B-freq = 0.019000  C-freq = 0.000000     beta(X;Y,X) =  13137.88714508
@ B-freq = 0.019000  C-freq = 0.000000     beta(Y;Y,X) =  12030.23233608
@ B-freq = 0.019000  C-freq = 0.000000     beta(Z;Y,X) =     -0.00000000
@ B-freq = 0.000000  C-freq = 0.000000     beta(X;Z,X) = beta(Z,X,X)
@ B-freq = 0.000000  C-freq = 0.000000     beta(Y;Z,X) = beta(Z,Y,X)
@ B-freq = 0.000000  C-freq = 0.000000     beta(X;Z,X) =     -0.00000000
@ B-freq = 0.000000  C-freq = 0.000000     beta(Y;Z,X) =     -0.00000000
@ B-freq = 0.000000  C-freq = 0.000000     beta(Z;Z,X) =    -32.23580287
@ B-freq = 0.019000  C-freq = 0.000000     beta(X;Z,X) =     -0.00000000
@ B-freq = 0.019000  C-freq = 0.000000     beta(Y;Z,X) =     -0.00000000
@ B-freq = 0.019000  C-freq = 0.000000     beta(Z;Z,X) =    -32.84599229
@ B-freq = 0.000000  C-freq = 0.019000     beta(X;X,X) = beta(X,X,X)
@ B-freq = 0.000000  C-freq = 0.019000     beta(Y;X,X) = beta(Y,X,X)
@ B-freq = 0.000000  C-freq = 0.019000     beta(Z;X,X) = beta(Z,X,X)
@ B-freq = 0.019000  C-freq = 0.019000     beta(X;X,X) =  15221.16573550
@ B-freq = 0.019000  C-freq = 0.019000     beta(Y;X,X) =  14644.11562054
@ B-freq = 0.019000  C-freq = 0.019000     beta(Z;X,X) =     -0.00000000
@ B-freq = 0.000000  C-freq = 0.019000     beta(X;Y,X) =  13257.73117810
@ B-freq = 0.000000  C-freq = 0.019000     beta(Y;Y,X) =  12119.27832540
@ B-freq = 0.000000  C-freq = 0.019000     beta(Z;Y,X) =     -0.00000000
@ B-freq = 0.019000  C-freq = 0.019000     beta(X;Y,X) =  15053.42132655
@ B-freq = 0.019000  C-freq = 0.019000     beta(Y;Y,X) =  13435.11576151
@ B-freq = 0.019000  C-freq = 0.019000     beta(Z;Y,X) =     -0.00000000
@ B-freq = 0.000000  C-freq = 0.019000     beta(X;Z,X) =     -0.00000000
@ B-freq = 0.000000  C-freq = 0.019000     beta(Y;Z,X) =     -0.00000000
@ B-freq = 0.000000  C-freq = 0.019000     beta(Z;Z,X) =    -32.97721817
@ B-freq = 0.019000  C-freq = 0.019000     beta(X;Z,X) =     -0.00000000
@ B-freq = 0.019000  C-freq = 0.019000     beta(Y;Z,X) =     -0.00000000
@ B-freq = 0.019000  C-freq = 0.019000     beta(Z;Z,X) =    -34.26182333
@ B-freq = 0.000000  C-freq = 0.000000     beta(X;X,Y) = beta(Y,X,X)
@ B-freq = 0.000000  C-freq = 0.000000     beta(Y;X,Y) = beta(Y,Y,X)
@ B-freq = 0.000000  C-freq = 0.000000     beta(Z;X,Y) = beta(Z,Y,X)
@ B-freq = 0.019000  C-freq = 0.000000     beta(X;X,Y) = beta(X,Y,X)
@ B-freq = 0.019000  C-freq = 0.000000     beta(Y;X,Y) = beta(Y,Y,X)
@ B-freq = 0.019000  C-freq = 0.000000     beta(Z;X,Y) = beta(Z,Y,X)
@ B-freq = 0.000000  C-freq = 0.000000     beta(X;Y,Y) = beta(Y,Y,X)
@ B-freq = 0.000000  C-freq = 0.000000     beta(X;Y,Y) =  11454.40863266
@ B-freq = 0.000000  C-freq = 0.000000     beta(Y;Y,Y) =   9962.12495409
@ B-freq = 0.000000  C-freq = 0.000000     beta(Z;Y,Y) =     -0.00000000
@ B-freq = 0.019000  C-freq = 0.000000     beta(X;Y,Y) =  12119.27736490
@ B-freq = 0.019000  C-freq = 0.000000     beta(Y;Y,Y) =  10478.55468398
@ B-freq = 0.019000  C-freq = 0.000000     beta(Z;Y,Y) =     -0.00000000
@ B-freq = 0.000000  C-freq = 0.000000     beta(X;Z,Y) = beta(Z,Y,X)
@ B-freq = 0.000000  C-freq = 0.000000     beta(Y;Z,Y) = beta(Z,Y,Y)
@ B-freq = 0.000000  C-freq = 0.000000     beta(X;Z,Y) =     -0.00000000
@ B-freq = 0.000000  C-freq = 0.000000     beta(Y;Z,Y) =     -0.00000000
@ B-freq = 0.000000  C-freq = 0.000000     beta(Z;Z,Y) =    -28.80877746
@ B-freq = 0.019000  C-freq = 0.000000     beta(X;Z,Y) =     -0.00000000
@ B-freq = 0.019000  C-freq = 0.000000     beta(Y;Z,Y) =     -0.00000000
@ B-freq = 0.019000  C-freq = 0.000000     beta(Z;Z,Y) =    -29.24906458
@ B-freq = 0.000000  C-freq = 0.019000     beta(X;X,Y) = beta(X,Y,X)
@ B-freq = 0.000000  C-freq = 0.019000     beta(Y;X,Y) = beta(Y,Y,X)
@ B-freq = 0.000000  C-freq = 0.019000     beta(Z;X,Y) = beta(Z,Y,X)
@ B-freq = 0.019000  C-freq = 0.019000     beta(X;X,Y) = beta(X,Y,X)
@ B-freq = 0.019000  C-freq = 0.019000     beta(Y;X,Y) = beta(Y,Y,X)
@ B-freq = 0.019000  C-freq = 0.019000     beta(Z;X,Y) = beta(Z,Y,X)
@ B-freq = 0.000000  C-freq = 0.019000     beta(X;Y,Y) = beta(X,Y,Y)
@ B-freq = 0.000000  C-freq = 0.019000     beta(Y;Y,Y) = beta(Y,Y,Y)
@ B-freq = 0.000000  C-freq = 0.019000     beta(Z;Y,Y) = beta(Z,Y,Y)
@ B-freq = 0.019000  C-freq = 0.019000     beta(X;Y,Y) =  13739.69871633
@ B-freq = 0.019000  C-freq = 0.019000     beta(Y;Y,Y) =  11650.48358207
@ B-freq = 0.019000  C-freq = 0.019000     beta(Z;Y,Y) =     -0.00000000
@ B-freq = 0.000000  C-freq = 0.019000     beta(X;Z,Y) =     -0.00000000
@ B-freq = 0.000000  C-freq = 0.019000     beta(Y;Z,Y) =     -0.00000000
@ B-freq = 0.000000  C-freq = 0.019000     beta(Z;Z,Y) =    -29.31492012
@ B-freq = 0.019000  C-freq = 0.019000     beta(X;Z,Y) =     -0.00000000
@ B-freq = 0.019000  C-freq = 0.019000     beta(Y;Z,Y) =     -0.00000000
@ B-freq = 0.019000  C-freq = 0.019000     beta(Z;Z,Y) =    -30.23829178
@ B-freq = 0.000000  C-freq = 0.000000     beta(X;X,Z) = beta(Z,X,X)
@ B-freq = 0.000000  C-freq = 0.000000     beta(Y;X,Z) = beta(Z,Y,X)
@ B-freq = 0.000000  C-freq = 0.000000     beta(Z;X,Z) = beta(Z,Z,X)
@ B-freq = 0.019000  C-freq = 0.000000     beta(X;X,Z) = beta(X,Z,X)
@ B-freq = 0.019000  C-freq = 0.000000     beta(Y;X,Z) = beta(Y,Z,X)
@ B-freq = 0.019000  C-freq = 0.000000     beta(Z;X,Z) = beta(Z,Z,X)
@ B-freq = 0.000000  C-freq = 0.000000     beta(X;Y,Z) = beta(Z,Y,X)
@ B-freq = 0.000000  C-freq = 0.000000     beta(Y;Y,Z) = beta(Z,Y,Y)
@ B-freq = 0.000000  C-freq = 0.000000     beta(Z;Y,Z) = beta(Z,Z,Y)
@ B-freq = 0.019000  C-freq = 0.000000     beta(X;Y,Z) = beta(X,Z,Y)
@ B-freq = 0.019000  C-freq = 0.000000     beta(Y;Y,Z) = beta(Y,Z,Y)
@ B-freq = 0.019000  C-freq = 0.000000     beta(Z;Y,Z) = beta(Z,Z,Y)
@ B-freq = 0.000000  C-freq = 0.000000     beta(X;Z,Z) = beta(Z,Z,X)
@ B-freq = 0.000000  C-freq = 0.000000     beta(Y;Z,Z) = beta(Z,Z,Y)
@ B-freq = 0.000000  C-freq = 0.000000     beta(X;Z,Z) =    -32.23578815
@ B-freq = 0.000000  C-freq = 0.000000     beta(Y;Z,Z) =    -28.80876639
@ B-freq = 0.000000  C-freq = 0.000000     beta(Z;Z,Z) =     -0.00000000
@ B-freq = 0.019000  C-freq = 0.000000     beta(X;Z,Z) =    -32.97720266
@ B-freq = 0.019000  C-freq = 0.000000     beta(Y;Z,Z) =    -29.31490852
@ B-freq = 0.019000  C-freq = 0.000000     beta(Z;Z,Z) =     -0.00000000
@ B-freq = 0.000000  C-freq = 0.019000     beta(X;X,Z) = beta(X,Z,X)
@ B-freq = 0.000000  C-freq = 0.019000     beta(Y;X,Z) = beta(Y,Z,X)
@ B-freq = 0.000000  C-freq = 0.019000     beta(Z;X,Z) = beta(Z,Z,X)
@ B-freq = 0.019000  C-freq = 0.019000     beta(X;X,Z) = beta(X,Z,X)
@ B-freq = 0.019000  C-freq = 0.019000     beta(Y;X,Z) = beta(Y,Z,X)
@ B-freq = 0.019000  C-freq = 0.019000     beta(Z;X,Z) = beta(Z,Z,X)
@ B-freq = 0.000000  C-freq = 0.019000     beta(X;Y,Z) = beta(X,Z,Y)
@ B-freq = 0.000000  C-freq = 0.019000     beta(Y;Y,Z) = beta(Y,Z,Y)
@ B-freq = 0.000000  C-freq = 0.019000     beta(Z;Y,Z) = beta(Z,Z,Y)
@ B-freq = 0.019000  C-freq = 0.019000     beta(X;Y,Z) = beta(X,Z,Y)
@ B-freq = 0.019000  C-freq = 0.019000     beta(Y;Y,Z) = beta(Y,Z,Y)
@ B-freq = 0.019000  C-freq = 0.019000     beta(Z;Y,Z) = beta(Z,Z,Y)
@ B-freq = 0.000000  C-freq = 0.019000     beta(X;Z,Z) = beta(X,Z,Z)
@ B-freq = 0.000000  C-freq = 0.019000     beta(Y;Z,Z) = beta(Y,Z,Z)
@ B-freq = 0.000000  C-freq = 0.019000     beta(Z;Z,Z) = beta(Z,Z,Z)
@ B-freq = 0.019000  C-freq = 0.019000     beta(X;Z,Z) =    -34.74360499
@ B-freq = 0.019000  C-freq = 0.019000     beta(Y;Z,Z) =    -30.49104463
@ B-freq = 0.019000  C-freq = 0.019000     beta(Z;Z,Z) =     -0.00000000

  Total CPU  time used in RESPONSE:   1 hour  27 minutes 50 seconds
  Total wall time used in RESPONSE:   1 hour  28 minutes 20 seconds


                   .-------------------------------------------.
                   | End of Dynamic Property Section (RESPONS) |
                   `-------------------------------------------'

  Total CPU  time used in DALTON:   1 hour  55 minutes 14 seconds
  Total wall time used in DALTON:   1 hour  55 minutes 53 seconds

 
     Date and time (Linux)  : Wed May 28 03:03:34 2025
     Host name              : xm023                                   
