

     ************************************************************************
     *************** Dalton - An Electronic Structure Program ***************
     ************************************************************************

    This is output from DALTON release Dalton2020.0 (2020)
         ( Web site: http://daltonprogram.org )

   ----------------------------------------------------------------------------

    NOTE:
     
    Dalton is an experimental code for the evaluation of molecular
    properties using (MC)SCF, DFT, CI, and CC wave functions.
    The authors accept no responsibility for the performance of
    the code or for the correctness of the results.
     
    The code (in whole or part) is provided under a licence and
    is not to be reproduced for further distribution without
    the written permission of the authors or their representatives.
     
    See the home page "http://daltonprogram.org" for further information.
     
    If results obtained with this code are published,
    the appropriate citations would be both of:
     
       K. Aidas, C. Angeli, K. L. Bak, V. Bakken, R. Bast,
       L. Boman, O. Christiansen, R. Cimiraglia, S. Coriani,
       P. Dahle, E. K. Dalskov, U. Ekstroem,
       T. Enevoldsen, J. J. Eriksen, P. Ettenhuber, B. Fernandez,
       L. Ferrighi, H. Fliegl, L. Frediani, K. Hald, A. Halkier,
       C. Haettig, H. Heiberg, T. Helgaker, A. C. Hennum,
       H. Hettema, E. Hjertenaes, S. Hoest, I.-M. Hoeyvik,
       M. F. Iozzi, B. Jansik, H. J. Aa. Jensen, D. Jonsson,
       P. Joergensen, J. Kauczor, S. Kirpekar,
       T. Kjaergaard, W. Klopper, S. Knecht, R. Kobayashi, H. Koch,
       J. Kongsted, A. Krapp, K. Kristensen, A. Ligabue,
       O. B. Lutnaes, J. I. Melo, K. V. Mikkelsen, R. H. Myhre,
       C. Neiss, C. B. Nielsen, P. Norman, J. Olsen,
       J. M. H. Olsen, A. Osted, M. J. Packer, F. Pawlowski,
       T. B. Pedersen, P. F. Provasi, S. Reine, Z. Rinkevicius,
       T. A. Ruden, K. Ruud, V. Rybkin, P. Salek, C. C. M. Samson,
       A. Sanchez de Meras, T. Saue, S. P. A. Sauer,
       B. Schimmelpfennig, K. Sneskov, A. H. Steindal,
       K. O. Sylvester-Hvid, P. R. Taylor, A. M. Teale,
       E. I. Tellgren, D. P. Tew, A. J. Thorvaldsen, L. Thoegersen,
       O. Vahtras, M. A. Watson, D. J. D. Wilson, M. Ziolkowski
       and H. Agren,
       "The Dalton quantum chemistry program system",
       WIREs Comput. Mol. Sci. 2014, 4:269–284 (doi: 10.1002/wcms.1172)
     
    and
     
       Dalton, a molecular electronic structure program,
       Release Dalton2020.0 (2020), see http://daltonprogram.org
   ----------------------------------------------------------------------------

    Authors in alphabetical order (Major contribution(s) in parenthesis):

  Kestutis Aidas,           Vilnius University,           Lithuania   (QM/MM)
  Celestino Angeli,         University of Ferrara,        Italy       (NEVPT2)
  Keld L. Bak,              UNI-C,                        Denmark     (AOSOPPA, non-adiabatic coupling, magnetic properties)
  Vebjoern Bakken,          University of Oslo,           Norway      (DALTON; geometry optimizer, symmetry detection)
  Radovan Bast,             UiT The Arctic U. of Norway,  Norway      (DALTON installation and execution frameworks)
  Pablo Baudin,             University of Valencia,       Spain       (Cholesky excitation energies)
  Linus Boman,              NTNU,                         Norway      (Cholesky decomposition and subsystems)
  Bruno N. Cabral Tenorio,  Technical Univ. of Denmark,   Denmark     (Lanczos-based CC methods)
  Ove Christiansen,         Aarhus University,            Denmark     (CC module)
  Renzo Cimiraglia,         University of Ferrara,        Italy       (NEVPT2)
  Sonia Coriani,            Technical Univ. of Denmark,   Denmark     (CC and RESPONS modules)
  Janusz Cukras,            University of Warsaw,         Poland      (MChD in RESPONS)
  Paal Dahle,               University of Oslo,           Norway      (Parallelization)
  Erik K. Dalskov,          UNI-C,                        Denmark     (SOPPA)
  Thomas Enevoldsen,        Univ. of Southern Denmark,    Denmark     (SOPPA)
  Janus J. Eriksen,         Aarhus University,            Denmark     (Polarizable embedding, TDA)
  Rasmus Faber,             Technical Univ. of Denmark,   Denmark     (Vib.avg. NMR w. SOPPA, parallel AO-SOPPA, CVS-CC and EOMCC)
  Tobias Fahleson,          KTH Stockholm,                Sweden      (Damped cubic response)
  Berta Fernandez,          U. of Santiago de Compostela, Spain       (Doublet spin, ESR in RESPONS)
  Lara Ferrighi,            Aarhus University,            Denmark     (PCM Cubic response)
  Heike Fliegl,             University of Oslo,           Norway      (CCSD(R12))
  Luca Frediani,            UiT The Arctic U. of Norway,  Norway      (PCM)
  Emmanuel Fromager,        Univ. Strasbourg,             France      (MC-srDFT)
  Bin Gao,                  UiT The Arctic U. of Norway,  Norway      (Gen1Int library)
  Andre S. P. Gomes,        CNRS/Universite de Lille,     France      (Frozen density embedding)
  Christof Haettig,         Ruhr-University Bochum,       Germany     (CC module)
  Kasper Hald,              Aarhus University,            Denmark     (CC module)
  Asger Halkier,            Aarhus University,            Denmark     (CC module)
  Frederik Beyer Hansen,    University of Copenhagen,     Denmark     (Parallel AO-SOPPA)
  Erik D. Hedegaard,        Univ. of Southern Denmark,    Denmark     (Polarizable embedding, QM/MM, and MC-srDFT)
  Hanne Heiberg,            University of Oslo,           Norway      (Geometry analysis, selected one-electron integrals)
  Trygve Helgaker,          University of Oslo,           Norway      (DALTON; ABACUS, ERI, DFT modules, London, and much more)
  Alf Christian Hennum,     University of Oslo,           Norway      (Parity violation)
  Hinne Hettema,            University of Auckland,       New Zealand (Quadratic response in RESPONS; SIRIUS supersymmetry)
  Eirik Hjertenaes,         NTNU,                         Norway      (Cholesky decomposition)
  Pi A. B. Haase,           University of Copenhagen,     Denmark     (Triplet AO-SOPPA)
  Maria Francesca Iozzi,    University of Oslo,           Norway      (RPA)
  Christoph Jacob           TU Braunschweig               Germany     (Frozen density embedding)
  Brano Jansik              Technical Univ. of Ostrava    Czech Rep.  (DFT cubic response)
  Hans Joergen Aa. Jensen,  Univ. of Southern Denmark,    Denmark     (DALTON; SIRIUS, RESPONS, ABACUS, MC-srDFT, and much more)
  Dan Jonsson,              UiT The Arctic U. of Norway,  Norway      (Cubic response in RESPONS module)
  Poul Joergensen,          Aarhus University,            Denmark     (RESPONS, ABACUS, and CC modules)
  Maciej Kaminski,          University of Warsaw,         Poland      (CPPh in RESPONS)
  Joanna Kauczor,           Linkoeping University,        Sweden      (Complex polarization propagator (CPP) module)
  Sheela Kirpekar,          Univ. of Southern Denmark,    Denmark     (Mass-velocity & Darwin integrals)
  Erik Kjellgren,           Univ. of Southern Denmark,    Denmark     (MC-srDFT)
  Wim Klopper,              KIT Karlsruhe,                Germany     (R12 code in CC, SIRIUS, and ABACUS modules)
  Stefan Knecht,            ETH Zurich,                   Switzerland (Parallel CI and MCSCF, MC-srDFT)
  Rika Kobayashi,           Australian National Univ.,    Australia   (DIIS in CC, London in MCSCF)
  Henrik Koch,              NTNU,                         Norway      (CC module, Cholesky decomposition)
  Jacob Kongsted,           Univ. of Southern Denmark,    Denmark     (Polarizable embedding, polarizable density embedding, QM/MM)
  Andrea Ligabue,           University of Modena,         Italy       (CTOCD, AOSOPPA)
  Nanna H. List             Univ. of Southern Denmark,    Denmark     (Polarizable embedding)
  Ola B. Lutnaes,           University of Oslo,           Norway      (DFT Hessian)
  Juan I. Melo,             University of Buenos Aires,   Argentina   (LRESC, Relativistic Effects on NMR Shieldings)
  Kurt V. Mikkelsen,        University of Copenhagen,     Denmark     (MC-SCRF and QM/MM)
  Rolf H. Myhre,            NTNU,                         Norway      (Subsystems and CC3)
  Christian Neiss,          Univ. Erlangen-Nuernberg,     Germany     (CCSD(R12))
  Christian B. Nielsen,     University of Copenhagen,     Denmark     (QM/MM)
  Patrick Norman,           KTH Stockholm,                Sweden      (Cubic response and complex frequency response in RESPONS)
  Jeppe Olsen,              Aarhus University,            Denmark     (SIRIUS CI/density modules)
  Jogvan Magnus H. Olsen,   Aarhus University,            Denmark     (Polarizable embedding and polarizable density embedding)
  Anders Osted,             Copenhagen University,        Denmark     (QM/MM)
  Martin J. Packer,         University of Sheffield,      UK          (SOPPA)
  Filip Pawlowski,          Kazimierz Wielki University,  Poland      (CC3)
  Morten N. Pedersen,       Univ. of Southern Denmark,    Denmark     (Polarizable embedding)
  Thomas B. Pedersen,       University of Oslo,           Norway      (Cholesky decomposition)
  Patricio F. Provasi,      University of Northeastern,   Argentina   (Analysis of coupling constants in localized orbitals)
  Peter Reinholdt,          Univ. of Southern Denmark,    Denmark     (Polarizable embedding and polarizable density embedding)
  Zilvinas Rinkevicius,     KTH Stockholm,                Sweden      (open-shell DFT, ESR)
  Elias Rudberg,            KTH Stockholm,                Sweden      (DFT grid and basis info)
  Torgeir A. Ruden,         University of Oslo,           Norway      (Numerical derivatives in ABACUS)
  Kenneth Ruud,             UiT The Arctic U. of Norway,  Norway      (DALTON; ABACUS magnetic properties and much more)
  Pawel Salek,              KTH Stockholm,                Sweden      (DALTON; DFT code)
  Claire C. M. Samson       University of Karlsruhe       Germany     (Boys localization, r12 integrals in ERI)
  Alfredo Sanchez de Meras, University of Valencia,       Spain       (CC module, Cholesky decomposition)
  Trond Saue,               Paul Sabatier University,     France      (direct Fock matrix construction)
  Stephan P. A. Sauer,      University of Copenhagen,     Denmark     (SOPPA(CCSD), SOPPA prop., AOSOPPA, vibrational g-factors)
  Bernd Schimmelpfennig,    Forschungszentrum Karlsruhe,  Germany     (AMFI module)
  Anna K. Schnack-Petersen, University of Copenhagen,     Denmark     (RPA(D) and HRPA(D) properties in AOSOPPA)
  Kristian Sneskov,         Aarhus University,            Denmark     (Polarizable embedding, QM/MM)
  Arnfinn H. Steindal,      UiT The Arctic U. of Norway,  Norway      (parallel QM/MM, polarizable embedding)
  Casper Steinmann,         Aalborg University,           Denmark     (QFIT, polarizable embedding)
  K. O. Sylvester-Hvid,     University of Copenhagen,     Denmark     (MC-SCRF)
  Peter R. Taylor,          VLSCI/Univ. of Melbourne,     Australia   (Symmetry handling ABACUS, integral transformation)
  Andrew M. Teale,          University of Nottingham,     England     (DFT-AC, DFT-D)
  David P. Tew,             University of Bristol,        England     (CCSD(R12))
  Julien Toulouse,          Sorbonne Univ.,               France      (MC-srDFT)
  Olav Vahtras,             KTH Stockholm,                Sweden      (Triplet response, spin-orbit, ESR, TDDFT, open-shell DFT)
  Lucas Visscher,           Vrije Universiteit Amsterdam, Netherlands (Frozen density embedding)
  David J. Wilson,          La Trobe University,          Australia   (DFT Hessian and DFT magnetizabilities)
  Hans Agren,               KTH Stockholm,                Sweden      (SIRIUS module, RESPONS, MC-SCRF solvation)
 --------------------------------------------------------------------------------

     Date and time (Linux)  : Fri Apr 11 10:52:01 2025
     Host name              : xm005                                   

 * Work memory size             :    64000000 =  488.28 megabytes.

 * Directories for basis set searches:
   1) /gpfs/projects/rjh/adrian/summer2025/beta_projects/raw_data/NLO/dalton/hf/n3/excited-state
   2) /gpfs/projects/rjh/adrian/dalton/build/basis


Compilation information
-----------------------

 Who compiled             | ahurtado
 Host                     | milan2
 System                   | Linux-5.14.0-427.42.1.el9_4.x86_64
 CMake generator          | Unix Makefiles
 Processor                | x86_64
 64-bit integers          | OFF
 MPI                      | ON
 Fortran compiler         | /gpfs/software/openmpi/milan/gcc13.2/4.1.6/bin/mpi
                          | f90
 Fortran compiler version | GNU Fortran (GCC) 13.2.0
 C compiler               | /gpfs/software/openmpi/milan/gcc13.2/4.1.6/bin/mpi
                          | cc
 C compiler version       | gcc (GCC) 13.2.0
 C++ compiler             | /gpfs/software/openmpi/milan/gcc13.2/4.1.6/bin/mpi
                          | cxx
 C++ compiler version     | unknown
 BLAS                     | /gpfs/software/intel/oneAPI/2024_2/mkl/2024.2/lib/
                          | intel64/libmkl_gf_lp64.so;/gpfs/software/intel/one
                          | API/2024_2/mkl/2024.2/lib/intel64/libmkl_sequentia
                          | l.so;/gpfs/software/intel/oneAPI/2024_2/mkl/2024.2
                          | /lib/intel64/libmkl_core.so;/usr/lib64/libpthread.
                          | a;/usr/lib64/libm.so
 LAPACK                   | /gpfs/software/intel/oneAPI/2024_2/mkl/2024.2/lib/
                          | intel64/libmkl_lapack95_lp64.a;/gpfs/software/inte
                          | l/oneAPI/2024_2/mkl/2024.2/lib/intel64/libmkl_gf_l
                          | p64.so
 Static linking           | OFF
 Last Git revision        | 66052b3af5ea7225e31178bf9a8b031913c72190
 Git branch               | (HEAD detached at Dalton2020.0)
 Configuration time       | 2025-04-10 16:02:31.569498

 * MPI parallel run using 192 processes.


   Content of the .dal input file
 ----------------------------------

**DALTON INPUT
.RUN PROPERTIES
.DIRECT
**WAVE FUNCTIONS
.HF
**PROPERTIES
.EXCITA
*EXCITA
.NEXCIT
   4  4  4  4  4  4  4  4  4  4
**END OF DALTON INPUT


   Content of the .mol file
 ----------------------------

BASIS
aug-cc-pVTZ
blah
blah
Atomtype=4 Au Charge=0 Nosymmetry
Charge=6 Atoms=30
C_a 0.96133392 1.00295702 0.0
C_b -0.28339656 3.2891269 0.0
C_c 0.96752088 5.69842567 0.0
C_d -0.28241012 7.98181576 0.0
C_e 0.96133392 10.39496579 0.0
C_f -0.2956571 12.67429297 0.0
C_g 0.93816776 15.09300635 0.0
C_h -0.32883124 17.36625239 0.0
C_i 0.89067139 19.79323899 0.0
C_j -0.39094465 22.05713467 0.0
C_k 0.80683558 24.49685614 0.0
C_l -0.49754221 26.74542613 0.0
C_m 0.66368126 29.20617836 0.0
C_n -0.68250105 31.42541603 0.0
C_o 0.40608703 33.92234896 0.0
C_p -1.04998475 36.06216144 0.0
C_q 0.8321409 -17.77274571 0.0
C_r -0.39094843 -15.47897157 0.0
C_s 0.88419152 -13.0794408 0.0
C_t -0.3470123 -10.78797213 0.0
C_u 0.92017568 -8.38580897 0.0
C_v -0.31620598 -6.09601271 0.0
C_w 0.94533738 -3.69172361 0.0
C_x -0.29517333 -1.4035544 0.0
C_y 0.61981127 -27.15652471 0.0
C_z -0.56221242 -24.8527218 0.0
C_{ 0.75182754 -22.46576527 0.0
C_| -0.45647468 -20.16800192 0.0
C_} 0.38089887 -31.80556846 0.0
C_~ -0.75883842 -29.51720839 0.0
Charge=7 Atoms=2
N_a -0.18324674 38.49962657 0.0
N_b -1.09747923 -34.13266036 0.0
Charge=8 Atoms=2
O_a 0.14414831 -36.11299885 0.0
O_b -3.4228118 -33.98882196 0.0
Charge=1 Atoms=32
H_a 3.04000053 1.0049299 0.0
H_b -2.36239576 3.28483156 0.0
H_c 3.04619694 5.70513797 0.0
H_d -2.36147925 7.97204399 0.0
H_e 3.03998352 10.40792364 0.0
H_f -2.3748037 12.65698686 0.0
H_g 3.01672855 15.11469096 0.0
H_h -2.40804777 17.33811248 0.0
H_i 2.96901864 19.82755264 0.0
H_j -2.47018574 22.01269776 0.0
H_k 2.8846537 24.55039019 0.0
H_l -2.57661701 26.67392646 0.0
H_m 2.73989312 29.29309632 0.0
H_n -2.75973903 31.30051647 0.0
H_o 2.47469841 34.09800089 0.0
H_p -3.11611303 35.88747893 0.0
H_q 2.91015556 -17.79464763 0.0
H_r -2.46972276 -15.46293158 0.0
H_s 2.9625501 -13.0916919 0.0
H_t -2.42585466 -10.77906585 0.0
H_u 2.99870434 -8.39223026 0.0
H_v -2.39509558 -6.09191011 0.0
H_w 3.02395675 -3.69382309 0.0
H_x -2.37411395 -1.40350904 0.0
H_y 2.69438852 -27.22924516 0.0
H_z -2.64003055 -24.80388183 0.0
H_{ 2.82909009 -22.50546652 0.0
H_| -2.53507705 -20.13941225 0.0
H_} 2.41445016 -32.15266957 0.0
H_~ -2.83078706 -29.47238975 0.0
H_ 1.69005199 38.87247709 0.0
H_ -1.39140157 39.97241297 0.0


       *******************************************************************
       *********** Output from DALTON general input processing ***********
       *******************************************************************

 --------------------------------------------------------------------------------
   Overall default print level:    0
   Print level for DALTON.STAT:    1

    Parallel calculation using MPI
    AO-direct calculation (in sections where implemented)
    HERMIT 1- and 2-electron integral sections will be executed
    "Old" integral transformation used (limited to max 255 basis functions)
    Wave function sections will be executed (SIRIUS module)
    Static molecular property section will be executed (ABACUS module)
 --------------------------------------------------------------------------------


   ****************************************************************************
   *************** Output of molecule and basis set information ***************
   ****************************************************************************


    The two title cards from your ".mol" input:
    ------------------------------------------------------------------------
 1: blah                                                                    
 2: blah                                                                    
    ------------------------------------------------------------------------

  Atomic type no.    1
  --------------------
  Nuclear charge:   6.00000
  Number of symmetry independent centers:   30
  Number of basis sets to read;    2
  Basis set file used for this atomic type with Z =   6 :
     "/gpfs/projects/rjh/adrian/dalton/build/basis/aug-cc-pVTZ"

  Atomic type no.    2
  --------------------
  Nuclear charge:   7.00000
  Number of symmetry independent centers:    2
  Number of basis sets to read;    2
  Basis set file used for this atomic type with Z =   7 :
     "/gpfs/projects/rjh/adrian/dalton/build/basis/aug-cc-pVTZ"

  Atomic type no.    3
  --------------------
  Nuclear charge:   8.00000
  Number of symmetry independent centers:    2
  Number of basis sets to read;    2
  Basis set file used for this atomic type with Z =   8 :
     "/gpfs/projects/rjh/adrian/dalton/build/basis/aug-cc-pVTZ"

  Atomic type no.    4
  --------------------
  Nuclear charge:   1.00000
  Number of symmetry independent centers:   32
  Number of basis sets to read;    2
  Basis set file used for this atomic type with Z =   1 :
     "/gpfs/projects/rjh/adrian/dalton/build/basis/aug-cc-pVTZ"


                         SYMGRP: Point group information
                         -------------------------------

@    Point group: C1 


                                 Isotopic Masses
                                 ---------------

                           C_a        12.000000
                           C_b        12.000000
                           C_c        12.000000
                           C_d        12.000000
                           C_e        12.000000
                           C_f        12.000000
                           C_g        12.000000
                           C_h        12.000000
                           C_i        12.000000
                           C_j        12.000000
                           C_k        12.000000
                           C_l        12.000000
                           C_m        12.000000
                           C_n        12.000000
                           C_o        12.000000
                           C_p        12.000000
                           C_q        12.000000
                           C_r        12.000000
                           C_s        12.000000
                           C_t        12.000000
                           C_u        12.000000
                           C_v        12.000000
                           C_w        12.000000
                           C_x        12.000000
                           C_y        12.000000
                           C_z        12.000000
                           C_{        12.000000
                           C_|        12.000000
                           C_}        12.000000
                           C_~        12.000000
                           N_a        14.003074
                           N_b        14.003074
                           O_a        15.994915
                           O_b        15.994915
                           H_a         1.007825
                           H_b         1.007825
                           H_c         1.007825
                           H_d         1.007825
                           H_e         1.007825
                           H_f         1.007825
                           H_g         1.007825
                           H_h         1.007825
                           H_i         1.007825
                           H_j         1.007825
                           H_k         1.007825
                           H_l         1.007825
                           H_m         1.007825
                           H_n         1.007825
                           H_o         1.007825
                           H_p         1.007825
                           H_q         1.007825
                           H_r         1.007825
                           H_s         1.007825
                           H_t         1.007825
                           H_u         1.007825
                           H_v         1.007825
                           H_w         1.007825
                           H_x         1.007825
                           H_y         1.007825
                           H_z         1.007825
                           H_{         1.007825
                           H_|         1.007825
                           H_}         1.007825
                           H_~         1.007825
                           H_         1.007825
                           H_        1.007825

                       Total mass:   452.246378 amu
                       Natural abundance:  70.550 %

 Center-of-mass coordinates (a.u.):   -0.011475   -0.312820    0.000000
 Center-of-mass coordinates (Angs):   -0.006072   -0.165537    0.000000


  Atoms and basis sets
  --------------------

  Number of atom types :    4
  Total number of atoms:   66

  Basis set used is "aug-cc-pVTZ" from the basis set library.

  label    atoms   charge   prim   cont     basis
  ----------------------------------------------------------------------
  C_         30    6.0000    58    46      [11s6p3d2f|5s4p3d2f]                               
  N_          2    7.0000    58    46      [11s6p3d2f|5s4p3d2f]                               
  O_          2    8.0000    58    46      [11s6p3d2f|5s4p3d2f]                               
  H_         32    1.0000    25    23      [6s3p2d|4s3p2d]                                    
  ----------------------------------------------------------------------
  total:     66  242.0000  2772  2300
  ----------------------------------------------------------------------
  Spherical harmonic basis used.

  Threshold for neglecting AO integrals:  1.00D-12

  Max    interatomic separation is   40.2709 Angstrom (   76.1009 Bohr)
  between atoms   66 and   33, "H_  " and "O_a   ".

  Min HX interatomic separation is    1.0080 Angstrom (    1.9049 Bohr)

  Min YX interatomic separation is    1.2329 Angstrom (    2.3298 Bohr)


  Bond distances (Angstrom):
  --------------------------

                  atom 1     atom 2       distance
                  ------     ------       --------
  bond distance:  C_b        C_a          1.377481
  bond distance:  C_c        C_b          1.436549
  bond distance:  C_d        C_c          1.377508
  bond distance:  C_e        C_d          1.436615
  bond distance:  C_f        C_e          1.377423
  bond distance:  C_g        C_f          1.436840
  bond distance:  C_h        C_g          1.377176
  bond distance:  C_i        C_h          1.437323
  bond distance:  C_j        C_i          1.376651
  bond distance:  C_k        C_j          1.438245
  bond distance:  C_l        C_k          1.375603
  bond distance:  C_m        C_l          1.439882
  bond distance:  C_n        C_m          1.373541
  bond distance:  C_o        C_n          1.441432
  bond distance:  C_p        C_o          1.369633
  bond distance:  C_r        C_q          1.375591
  bond distance:  C_s        C_r          1.437934
  bond distance:  C_t        C_s          1.376542
  bond distance:  C_u        C_t          1.437196
  bond distance:  C_v        C_u          1.377062
  bond distance:  C_w        C_v          1.436801
  bond distance:  C_x        C_a          1.436607
  bond distance:  C_x        C_w          1.377344
  bond distance:  C_z        C_y          1.370220
  bond distance:  C_{        C_z          1.441876
  bond distance:  C_|        C_q          1.439302
  bond distance:  C_|        C_{          1.373794
  bond distance:  C_~        C_y          1.446649
  bond distance:  C_~        C_}          1.352831
  bond distance:  N_a        C_p          1.368971
  bond distance:  N_b        C_}          1.458933
  bond distance:  O_a        N_b          1.236892
  bond distance:  O_b        N_b          1.232865
  bond distance:  H_a        C_a          1.099983
  bond distance:  H_b        C_b          1.100161
  bond distance:  H_c        C_c          1.099994
  bond distance:  H_d        C_d          1.100208
  bond distance:  H_e        C_e          1.099995
  bond distance:  H_f        C_f          1.100275
  bond distance:  H_g        C_g          1.099987
  bond distance:  H_h        C_h          1.100375
  bond distance:  H_i        C_i          1.099964
  bond distance:  H_j        C_j          1.100538
  bond distance:  H_k        C_k          1.099899
  bond distance:  H_l        C_l          1.100849
  bond distance:  H_m        C_m          1.099646
  bond distance:  H_n        C_n          1.101212
  bond distance:  H_o        C_o          1.098601
  bond distance:  H_p        C_p          1.097249
  bond distance:  H_q        C_q          1.099699
  bond distance:  H_r        C_r          1.100073
  bond distance:  H_s        C_s          1.099839
  bond distance:  H_t        C_t          1.100086
  bond distance:  H_u        C_u          1.099915
  bond distance:  H_v        C_v          1.100103
  bond distance:  H_w        C_w          1.099959
  bond distance:  H_x        C_x          1.100128
  bond distance:  H_y        C_y          1.098493
  bond distance:  H_z        C_z          1.099838
  bond distance:  H_{        C_{          1.099441
  bond distance:  H_|        C_|          1.100053
  bond distance:  H_}        C_}          1.091672
  bond distance:  H_~        C_~          1.096684
  bond distance:  H_        N_a          1.010751
  bond distance:  H_       N_a          1.008043


  Bond angles (degrees):
  ----------------------

                  atom 1     atom 2     atom 3         angle
                  ------     ------     ------         -----
  bond angle:     C_b        C_a        C_x          123.863
  bond angle:     C_b        C_a        H_a          118.512
  bond angle:     C_x        C_a        H_a          117.625
  bond angle:     C_a        C_b        C_c          123.995
  bond angle:     C_a        C_b        H_b          118.448
  bond angle:     C_c        C_b        H_b          117.557
  bond angle:     C_b        C_c        C_d          123.865
  bond angle:     C_b        C_c        H_c          117.624
  bond angle:     C_d        C_c        H_c          118.511
  bond angle:     C_c        C_d        C_e          124.037
  bond angle:     C_c        C_d        H_d          118.427
  bond angle:     C_e        C_d        H_d          117.536
  bond angle:     C_d        C_e        C_f          123.858
  bond angle:     C_d        C_e        H_e          117.624
  bond angle:     C_f        C_e        H_e          118.518
  bond angle:     C_e        C_f        C_g          124.098
  bond angle:     C_e        C_f        H_f          118.399
  bond angle:     C_g        C_f        H_f          117.504
  bond angle:     C_f        C_g        C_h          123.840
  bond angle:     C_f        C_g        H_g          117.625
  bond angle:     C_h        C_g        H_g          118.535
  bond angle:     C_g        C_h        C_i          124.188
  bond angle:     C_g        C_h        H_h          118.358
  bond angle:     C_i        C_h        H_h          117.454
  bond angle:     C_h        C_i        C_j          123.807
  bond angle:     C_h        C_i        H_i          117.624
  bond angle:     C_j        C_i        H_i          118.569
  bond angle:     C_i        C_j        C_k          124.337
  bond angle:     C_i        C_j        H_j          118.290
  bond angle:     C_k        C_j        H_j          117.373
  bond angle:     C_j        C_k        C_l          123.734
  bond angle:     C_j        C_k        H_k          117.625
  bond angle:     C_l        C_k        H_k          118.642
  bond angle:     C_k        C_l        C_m          124.620
  bond angle:     C_k        C_l        H_l          118.148
  bond angle:     C_m        C_l        H_l          117.232
  bond angle:     C_l        C_m        C_n          123.497
  bond angle:     C_l        C_m        H_m          117.660
  bond angle:     C_n        C_m        H_m          118.844
  bond angle:     C_m        C_n        C_o          125.203
  bond angle:     C_m        C_n        H_n          117.800
  bond angle:     C_o        C_n        H_n          116.997
  bond angle:     C_n        C_o        C_p          122.210
  bond angle:     C_n        C_o        H_o          118.409
  bond angle:     C_p        C_o        H_o          119.380
  bond angle:     C_o        C_p        N_a          126.191
  bond angle:     C_o        C_p        H_p          119.401
  bond angle:     N_a        C_p        H_p          114.407
  bond angle:     C_r        C_q        C_|          123.653
  bond angle:     C_r        C_q        H_q          118.671
  bond angle:     C_|        C_q        H_q          117.676
  bond angle:     C_q        C_r        C_s          123.946
  bond angle:     C_q        C_r        H_r          118.510
  bond angle:     C_s        C_r        H_r          117.545
  bond angle:     C_r        C_s        C_t          123.764
  bond angle:     C_r        C_s        H_s          117.649
  bond angle:     C_t        C_s        H_s          118.587
  bond angle:     C_s        C_t        C_u          123.938
  bond angle:     C_s        C_t        H_t          118.495
  bond angle:     C_u        C_t        H_t          117.567
  bond angle:     C_t        C_u        C_v          123.821
  bond angle:     C_t        C_u        H_u          117.636
  bond angle:     C_v        C_u        H_u          118.544
  bond angle:     C_u        C_v        C_w          123.947
  bond angle:     C_u        C_v        H_v          118.480
  bond angle:     C_w        C_v        H_v          117.573
  bond angle:     C_v        C_w        C_x          123.850
  bond angle:     C_v        C_w        H_w          117.628
  bond angle:     C_x        C_w        H_w          118.522
  bond angle:     C_a        C_x        C_w          123.966
  bond angle:     C_a        C_x        H_x          117.569
  bond angle:     C_w        C_x        H_x          118.465
  bond angle:     C_z        C_y        C_~          122.554
  bond angle:     C_z        C_y        H_y          119.169
  bond angle:     C_~        C_y        H_y          118.278
  bond angle:     C_y        C_z        C_{          124.006
  bond angle:     C_y        C_z        H_z          118.508
  bond angle:     C_{        C_z        H_z          117.487
  bond angle:     C_z        C_{        C_|          123.429
  bond angle:     C_z        C_{        H_{          117.738
  bond angle:     C_|        C_{        H_{          118.833
  bond angle:     C_q        C_|        C_{          123.982
  bond angle:     C_q        C_|        H_|          117.492
  bond angle:     C_{        C_|        H_|          118.526
  bond angle:     C_~        C_}        N_b          121.097
  bond angle:     C_~        C_}        H_}          126.162
  bond angle:     N_b        C_}        H_}          112.741
  bond angle:     C_y        C_~        C_}          123.239
  bond angle:     C_y        C_~        H_~          119.046
  bond angle:     C_}        C_~        H_~          117.715
  bond angle:     C_p        N_a        H_          120.832
  bond angle:     C_p        N_a        H_         121.062
  bond angle:     H_        N_a        H_         118.106
  bond angle:     C_}        N_b        O_a          115.486
  bond angle:     C_}        N_b        O_b          118.888
  bond angle:     O_a        N_b        O_b          125.626




 Principal moments of inertia (u*A**2) and principal axes
 --------------------------------------------------------

   IA     163.817506          0.007878    0.999969    0.000000
   IB   67827.654062          0.999969   -0.007878    0.000000
   IC   67991.471568          0.000000    0.000000    1.000000


 Rotational constants
 --------------------

@    The molecule is planar.

               A                   B                   C

           3085.0122              7.4509              7.4330 MHz
            0.102905            0.000249            0.000248 cm-1


@  Nuclear repulsion energy : 2233.399099879421 Hartree


                     .---------------------------------------.
                     | Starting in Integral Section (HERMIT) |
                     `---------------------------------------'



 ***************************************************************************************
 ****************** Output from **INTEGRALS input processing (HERMIT) ******************
 ***************************************************************************************


 - Using defaults, no **INTEGRALS input found

 Default print level:        1

 Calculation of one-electron Hamiltonian integrals.

 Center of mass  (bohr):     -0.011474676932     -0.312820016935      0.000000000000
 Operator center (bohr):      0.000000000000      0.000000000000      0.000000000000
 Gauge origin    (bohr):      0.000000000000      0.000000000000      0.000000000000
 Dipole origin   (bohr):      0.000000000000      0.000000000000      0.000000000000


     ************************************************************************
     ************************** Output from HERINT **************************
     ************************************************************************



                      Nuclear contribution to dipole moments
                      --------------------------------------

                 au               Debye          C m (/(10**-30)

      x     -0.00004330        -0.00011006        -0.00036711
      y      0.00002825         0.00007180         0.00023951
      z      0.00000000         0.00000000         0.00000000


  Time used in ONEDRV     is       9.44 seconds
  Time used in HUCKEL     is       1.95 seconds
  Time used in OVERLAP    is       1.05 seconds
  Time used in POPOVLP    is       2.05 seconds
  Time used in R2         is       1.23 seconds
  Time used in R4         is       1.41 seconds
  Time used in DIPLEN     is       1.83 seconds
  Time used in QUADRUP    is       3.49 seconds
  Time used in KINENE     is       1.60 seconds
  Time used in GABGEN     is       9.79 seconds
  Total CPU  time used in HERMIT:  33.82 seconds
  Total wall time used in HERMIT:  33.86 seconds


                        .----------------------------------.
                        | End of Integral Section (HERMIT) |
                        `----------------------------------'



                   .--------------------------------------------.
                   | Starting in Wave Function Section (SIRIUS) |
                   `--------------------------------------------'



@ Primary orbitals are deleted during canonical orthonormalization
@   because of detected numerical linear dependence or too large coefficients.
@ Eigenvalue threshold for num. lin. dep. =  1.00D-06

@  14 MO components are deleted in symmetry    1
 Overlap eigenvalues of the deleted orbitals:
  9.93D-07  8.14D-07  8.07D-07  7.57D-07  6.71D-07
  6.60D-07  5.42D-07  5.34D-07  4.14D-07  4.09D-07
  3.12D-07  1.94D-07  9.74D-08  2.67D-08

 Max MO coeff. of last deleted MO & limit:  2.41D+02  1.00D+03

WARNING: Orbitals have been deleted because of numerical
   linear dependence although not requested in input.

 *** Output from Huckel module :

     Using EWMO model:          T
     Using EHT  model:          F
     Number of Huckel orbitals each symmetry:  202

 EWMO - Energy Weighted Maximum Overlap - is a Huckel type method,
        which normally is better than Extended Huckel Theory.
 Reference: Linderberg and Ohrn, Propagators in Quantum Chemistry (Wiley, 1973)

 Huckel EWMO eigenvalues for symmetry :  1
          -20.684753     -20.683498     -15.677080     -15.674960     -11.359418
          -11.359392     -11.359222     -11.359177     -11.358955     -11.358869
          -11.358774     -11.358279     -11.357491     -11.356516     -11.355404
          -11.354215     -11.353009     -11.351853     -11.350860     -11.348664
          -11.348020     -11.347329     -11.346712     -11.346203     -11.345813
          -11.345547     -11.345487     -11.345453     -11.345371     -11.345357
          -11.345264     -11.345249     -11.345181     -11.345177      -1.964049
           -1.792974      -1.790903      -1.786019      -1.776313      -1.759863
           -1.734941      -1.700402      -1.655928      -1.602077      -1.540229
           -1.473584      -1.443213      -1.395679      -1.320924      -1.244704
           -1.212890      -1.196939      -1.174637      -1.165822      -1.138892
           -1.098937      -1.093876      -1.053279      -1.021317      -1.002628
           -0.963387      -0.944684      -0.912048      -0.885728      -0.864035
           -0.852027      -0.837425      -0.821219      -0.811603      -0.785245
           -0.773057      -0.753942      -0.747002      -0.741859      -0.729073
           -0.699698      -0.695555      -0.678064      -0.668693      -0.667047
           -0.646775      -0.632272      -0.631024      -0.617404      -0.596616
           -0.596150      -0.587054      -0.585351      -0.560813      -0.559863
           -0.551682      -0.542237      -0.528809      -0.524270      -0.521889
           -0.509108      -0.504556      -0.495728      -0.493814      -0.492698
           -0.489789      -0.488775      -0.487617      -0.484431      -0.482480
           -0.479573      -0.477583      -0.477166      -0.474145      -0.473972
           -0.457048      -0.454765      -0.428620      -0.426528      -0.405074
           -0.398600      -0.385539      -0.373512      -0.370889      -0.361776
           -0.351565      -0.336028      -0.308348      -0.290464      -0.274062
           -0.259482      -0.246722      -0.235703      -0.229150      -0.226313
           -0.218424      -0.211898      -0.206594      -0.202373      -0.200878
           -0.199109      -0.196691      -0.195029      -0.194058      -0.190598
           -0.166740      -0.142717      -0.139028      -0.135733      -0.133586
           -0.132097      -0.131634      -0.131287      -0.130729      -0.130481
           -0.129886      -0.129805      -0.129613      -0.129339      -0.129238
           -0.128777      -0.128170      -0.128020      -0.127528      -0.127490
           -0.126852      -0.126449      -0.126338      -0.125987      -0.125880
           -0.125233      -0.124881      -0.124472      -0.124121      -0.123768
           -0.123598      -0.123200      -0.113023      -0.112311      -0.110173
           -0.108646      -0.106328      -0.104760      -0.102167      -0.101222
           -0.098245      -0.097478      -0.095001      -0.094203      -0.092421
           -0.091346      -0.090267      -0.089161      -0.088377      -0.087549
           -0.086801      -0.086253      -0.085671      -0.085129      -0.084963
           -0.084073      -0.083063      -0.082073      -0.081123      -0.080279
           -0.079641      -0.079330

 **********************************************************************
 *SIRIUS* a direct, restricted step, second order MCSCF program       *
 **********************************************************************

 
     Date and time (Linux)  : Fri Apr 11 11:04:55 2025
     Host name              : xm005                                   

 Title lines from ".mol" input file:
     blah                                                                    
     blah                                                                    

 Print level on unit LUPRI =   2 is   0
 Print level on unit LUW4  =   2 is   5

@    Restricted, closed shell Hartree-Fock calculation.
 Fock matrices are calculated directly and in parallel without use of integrals on disk.

 Initial molecular orbitals are obtained according to
 ".MOSTART EWMO  " input option

     Wave function specification
     ============================
@    Wave function type        --- HF ---
@    Number of closed shell electrons         242
@    Number of electrons in active shells       0
@    Total charge of the molecule               0

@    Spin multiplicity and 2 M_S                1         0
@    Total number of symmetries                 1 (point group: C1 )
@    Reference state symmetry                   1 (irrep name : A  )

     Orbital specifications
     ======================
@    Abelian symmetry species          All |    1
@                                          |  A  
                                       --- |  ---
@    Occupied SCF orbitals             121 |  121
@    Secondary orbitals               2165 | 2165
@    Total number of orbitals         2286 | 2286
@    Number of basis functions        2300 | 2300

     Optimization information
     ========================
@    Number of configurations                 1
@    Number of orbital rotations         261965
     ------------------------------------------
@    Total number of variables           261966

     Maximum number of Fock   iterations      0
     Maximum number of DIIS   iterations     60
     Maximum number of QC-SCF iterations     60
     Threshold for SCF convergence     1.00D-05


 ***********************************************
 ***** DIIS acceleration of SCF iterations *****
 ***********************************************

 C1-DIIS algorithm; max error vectors =    8

 SRDIIS INFO: MXERRV reduced from    8 to    3
 SRDIIS INFO: because of memory limitations.

 Iter      Total energy        Error norm    Delta(E)  DIIS dim.
 -----------------------------------------------------------------------------
   1  Screening settings (-IFTHRS, JTDIIS, DIFDEN, times)  -10    1    T  1.63D+02  1.63D+02
@  1    -1408.22706010        8.92053D+00   -1.41D+03    1
      Virial theorem: -V/T =      2.012838
@    MULPOP   C_a    -0.00; C_b     0.04; C_c    -0.00; C_d     0.04; C_e    -0.00; C_f     0.06; C_g     0.01; C_h     0.05; C_i    -0.02; C_j     0.04; 
@             C_k    -0.06; C_l     0.02; C_m    -0.15; C_n    -0.07; C_o    -0.06; C_p     0.32; C_q     0.00; C_r     0.07; C_s     0.02; C_t     0.07; 
@             C_u     0.03; C_v     0.05; C_w     0.01; C_x     0.04; C_y    -0.04; C_z    -0.03; C_{    -0.01; C_|     0.04; C_}     0.18; C_~    -0.03; 
@    MULPOP    dipole moment & components:     39.8894;        2.7401     39.7952      0.0000
   1  Level shift: doubly occupied orbital energies shifted by -2.00D-01
 -----------------------------------------------------------------------------
   2  Screening settings (-IFTHRS, JTDIIS, DIFDEN, times)  -10    2    T  1.69D+02  1.69D+02
@  2    -1412.79707638        3.18335D+00   -4.57D+00    2
      Virial theorem: -V/T =      2.000217
@    MULPOP   C_a    -0.04; C_b    -0.02; C_c    -0.08; C_d    -0.06; C_e    -0.07; C_f    -0.06; C_g    -0.06; C_h    -0.07; C_i    -0.10; C_j    -0.02; 
@             C_k    -0.01; C_l     0.06; C_m     0.00; C_n     0.04; C_o     0.13; C_p    -0.52; C_q    -0.06; C_r    -0.10; C_s    -0.12; C_t    -0.05; 
@             C_u    -0.07; C_v    -0.07; C_w    -0.08; C_x    -0.05; C_y    -0.07; C_z     0.12; C_{    -0.04; C_|    -0.00; C_}    -0.87; C_~     0.23; 
@    MULPOP    dipole moment & components:     13.4720;       -0.0793     13.4717      0.0000
   2  Level shift: doubly occupied orbital energies shifted by -1.00D-01
 -----------------------------------------------------------------------------
   3  Screening settings (-IFTHRS, JTDIIS, DIFDEN, times)  -10    3    T  1.60D+02  1.60D+02
@  3    -1413.33338142        1.18758D+00   -5.36D-01    3
      Virial theorem: -V/T =      2.002017
@    MULPOP   C_a    -0.08; C_b    -0.05; C_c    -0.11; C_d    -0.08; C_e    -0.12; C_f    -0.09; C_g    -0.10; C_h    -0.12; C_i    -0.14; C_j    -0.07; 
@             C_k    -0.07; C_l     0.03; C_m    -0.07; C_n     0.06; C_o     0.02; C_p    -0.41; C_q    -0.08; C_r    -0.12; C_s    -0.15; C_t    -0.08; 
@             C_u    -0.11; C_v    -0.09; C_w    -0.10; C_x    -0.08; C_y    -0.06; C_z     0.12; C_{    -0.05; C_|    -0.03; C_}    -0.61; C_~     0.23; 
@    MULPOP    dipole moment & components:     11.4713;        0.1556     11.4703      0.0000
   3  Level shift: doubly occupied orbital energies shifted by -5.00D-02
 -----------------------------------------------------------------------------
   4  Screening settings (-IFTHRS, JTDIIS, DIFDEN, times)  -10    4    T  1.54D+02  1.54D+02
@  4    -1413.42060917        3.47319D-01   -8.72D-02    3
      Virial theorem: -V/T =      2.003469
@    MULPOP   C_a    -0.09; C_b    -0.06; C_c    -0.11; C_d    -0.09; C_e    -0.13; C_f    -0.09; C_g    -0.12; C_h    -0.12; C_i    -0.15; C_j    -0.07; 
@             C_k    -0.08; C_l     0.03; C_m    -0.08; C_n     0.06; C_o    -0.00; C_p    -0.39; C_q    -0.10; C_r    -0.12; C_s    -0.16; C_t    -0.08; 
@             C_u    -0.12; C_v    -0.09; C_w    -0.11; C_x    -0.07; C_y    -0.09; C_z     0.13; C_{    -0.07; C_|    -0.02; C_}    -0.69; C_~     0.21; 
@    MULPOP    dipole moment & components:      9.6144;       -0.0528      9.6142      0.0000
   4  Level shift: doubly occupied orbital energies shifted by -2.50D-02
 -----------------------------------------------------------------------------
   5  Screening settings (-IFTHRS, JTDIIS, DIFDEN, times)  -14    5    F  2.08D+02  2.08D+02
@  5    -1413.43823322        1.65840D-01   -1.76D-02    3
      Virial theorem: -V/T =      2.002636
@    MULPOP   C_a    -0.10; C_b    -0.07; C_c    -0.12; C_d    -0.09; C_e    -0.14; C_f    -0.10; C_g    -0.13; C_h    -0.13; C_i    -0.16; C_j    -0.08; 
@             C_k    -0.09; C_l     0.02; C_m    -0.09; C_n     0.05; C_o    -0.01; C_p    -0.41; C_q    -0.11; C_r    -0.13; C_s    -0.17; C_t    -0.09; 
@             C_u    -0.13; C_v    -0.10; C_w    -0.12; C_x    -0.08; C_y    -0.10; C_z     0.11; C_{    -0.09; C_|    -0.04; C_}    -0.67; C_~     0.19; 
@    MULPOP    dipole moment & components:      8.6198;       -0.2392      8.6165      0.0000
   5  Level shift: doubly occupied orbital energies shifted by -1.25D-02
 -----------------------------------------------------------------------------
   6  Screening settings (-IFTHRS, JTDIIS, DIFDEN, times)  -14    6    T  1.93D+02  1.93D+02
@  6    -1413.44409760        8.97215D-02   -5.86D-03    3
      Virial theorem: -V/T =      2.002683
@    MULPOP   C_a    -0.10; C_b    -0.07; C_c    -0.11; C_d    -0.09; C_e    -0.14; C_f    -0.10; C_g    -0.13; C_h    -0.13; C_i    -0.16; C_j    -0.08; 
@             C_k    -0.09; C_l     0.02; C_m    -0.09; C_n     0.05; C_o    -0.01; C_p    -0.41; C_q    -0.11; C_r    -0.13; C_s    -0.17; C_t    -0.09; 
@             C_u    -0.13; C_v    -0.10; C_w    -0.12; C_x    -0.08; C_y    -0.11; C_z     0.12; C_{    -0.09; C_|    -0.04; C_}    -0.68; C_~     0.20; 
@    MULPOP    dipole moment & components:      8.0738;       -0.2189      8.0708      0.0000
   6  Level shift: doubly occupied orbital energies shifted by -1.25D-02
 -----------------------------------------------------------------------------
   7  Screening settings (-IFTHRS, JTDIIS, DIFDEN, times)  -14    7    T  1.89D+02  1.89D+02
@  7    -1413.44622621        5.64416D-02   -2.13D-03    3
      Virial theorem: -V/T =      2.002708
@    MULPOP   C_a    -0.10; C_b    -0.07; C_c    -0.11; C_d    -0.10; C_e    -0.14; C_f    -0.10; C_g    -0.13; C_h    -0.13; C_i    -0.16; C_j    -0.09; 
@             C_k    -0.09; C_l     0.02; C_m    -0.09; C_n     0.04; C_o    -0.01; C_p    -0.41; C_q    -0.12; C_r    -0.13; C_s    -0.17; C_t    -0.09; 
@             C_u    -0.13; C_v    -0.10; C_w    -0.12; C_x    -0.08; C_y    -0.11; C_z     0.12; C_{    -0.09; C_|    -0.04; C_}    -0.69; C_~     0.20; 
@    MULPOP    dipole moment & components:      7.7112;       -0.2850      7.7060      0.0000
   7  Level shift: doubly occupied orbital energies shifted by -1.25D-02
 -----------------------------------------------------------------------------
   8  Screening settings (-IFTHRS, JTDIIS, DIFDEN, times)  -14    8    T  1.86D+02  1.86D+02
@  8    -1413.44693184        3.28095D-02   -7.06D-04    3
      Virial theorem: -V/T =      2.002646
@    MULPOP   C_a    -0.10; C_b    -0.07; C_c    -0.11; C_d    -0.10; C_e    -0.14; C_f    -0.10; C_g    -0.13; C_h    -0.13; C_i    -0.16; C_j    -0.09; 
@             C_k    -0.09; C_l     0.02; C_m    -0.09; C_n     0.04; C_o    -0.01; C_p    -0.41; C_q    -0.12; C_r    -0.13; C_s    -0.17; C_t    -0.09; 
@             C_u    -0.13; C_v    -0.10; C_w    -0.12; C_x    -0.08; C_y    -0.11; C_z     0.12; C_{    -0.09; C_|    -0.04; C_}    -0.68; C_~     0.20; 
@    MULPOP    dipole moment & components:      7.4466;       -0.2660      7.4418      0.0000
   8  Level shift: doubly occupied orbital energies shifted by -1.25D-02
 -----------------------------------------------------------------------------
   9  Screening settings (-IFTHRS, JTDIIS, DIFDEN, times)  -14    9    T  1.83D+02  1.84D+02
@  9    -1413.44716279        2.03405D-02   -2.31D-04    3
      Virial theorem: -V/T =      2.002662
@    MULPOP   C_a    -0.10; C_b    -0.07; C_c    -0.11; C_d    -0.10; C_e    -0.14; C_f    -0.10; C_g    -0.13; C_h    -0.13; C_i    -0.16; C_j    -0.09; 
@             C_k    -0.09; C_l     0.02; C_m    -0.09; C_n     0.04; C_o    -0.01; C_p    -0.41; C_q    -0.11; C_r    -0.13; C_s    -0.17; C_t    -0.09; 
@             C_u    -0.13; C_v    -0.10; C_w    -0.12; C_x    -0.08; C_y    -0.11; C_z     0.12; C_{    -0.09; C_|    -0.04; C_}    -0.69; C_~     0.20; 
@    MULPOP    dipole moment & components:      7.2560;       -0.2548      7.2515      0.0000
   9  Level shift: doubly occupied orbital energies shifted by -1.25D-02
 -----------------------------------------------------------------------------
  10  Screening settings (-IFTHRS, JTDIIS, DIFDEN, times)  -14   10    T  1.79D+02  1.79D+02
@ 10    -1413.44722222        1.30389D-02   -5.94D-05    3
      Virial theorem: -V/T =      2.002659
@    MULPOP   C_a    -0.10; C_b    -0.07; C_c    -0.11; C_d    -0.10; C_e    -0.14; C_f    -0.10; C_g    -0.13; C_h    -0.13; C_i    -0.16; C_j    -0.09; 
@             C_k    -0.09; C_l     0.02; C_m    -0.09; C_n     0.04; C_o    -0.01; C_p    -0.41; C_q    -0.11; C_r    -0.13; C_s    -0.17; C_t    -0.09; 
@             C_u    -0.13; C_v    -0.10; C_w    -0.12; C_x    -0.08; C_y    -0.11; C_z     0.12; C_{    -0.09; C_|    -0.04; C_}    -0.68; C_~     0.20; 
@    MULPOP    dipole moment & components:      7.1596;       -0.2535      7.1551      0.0000
  10  Level shift: doubly occupied orbital energies shifted by -1.25D-02
 -----------------------------------------------------------------------------
  11  Screening settings (-IFTHRS, JTDIIS, DIFDEN, times)  -14   11    T  1.78D+02  1.78D+02
@ 11    -1413.44725544        7.90416D-03   -3.32D-05    3
      Virial theorem: -V/T =      2.002654
@    MULPOP   C_a    -0.10; C_b    -0.07; C_c    -0.11; C_d    -0.10; C_e    -0.14; C_f    -0.10; C_g    -0.13; C_h    -0.13; C_i    -0.16; C_j    -0.09; 
@             C_k    -0.09; C_l     0.02; C_m    -0.09; C_n     0.04; C_o    -0.01; C_p    -0.41; C_q    -0.11; C_r    -0.13; C_s    -0.17; C_t    -0.09; 
@             C_u    -0.13; C_v    -0.10; C_w    -0.12; C_x    -0.08; C_y    -0.11; C_z     0.12; C_{    -0.09; C_|    -0.04; C_}    -0.68; C_~     0.20; 
@    MULPOP    dipole moment & components:      7.0628;       -0.2356      7.0589      0.0000
  11  Level shift: doubly occupied orbital energies shifted by -1.25D-02
 -----------------------------------------------------------------------------
  12  Screening settings (-IFTHRS, JTDIIS, DIFDEN, times)  -14   12    T  1.76D+02  1.76D+02
@ 12    -1413.44726978        5.50196D-03   -1.43D-05    3
      Virial theorem: -V/T =      2.002656
@    MULPOP   C_a    -0.10; C_b    -0.07; C_c    -0.11; C_d    -0.10; C_e    -0.14; C_f    -0.10; C_g    -0.13; C_h    -0.13; C_i    -0.16; C_j    -0.09; 
@             C_k    -0.09; C_l     0.02; C_m    -0.09; C_n     0.04; C_o    -0.01; C_p    -0.41; C_q    -0.11; C_r    -0.13; C_s    -0.17; C_t    -0.09; 
@             C_u    -0.13; C_v    -0.10; C_w    -0.12; C_x    -0.09; C_y    -0.11; C_z     0.12; C_{    -0.09; C_|    -0.04; C_}    -0.68; C_~     0.20; 
@    MULPOP    dipole moment & components:      6.9976;       -0.2292      6.9938      0.0000
  12  Level shift: doubly occupied orbital energies shifted by -1.25D-02
 -----------------------------------------------------------------------------
  13  Screening settings (-IFTHRS, JTDIIS, DIFDEN, times)  -14   13    T  1.76D+02  1.76D+02
@ 13    -1413.44728047        3.87127D-03   -1.07D-05    3
      Virial theorem: -V/T =      2.002654
@    MULPOP   C_a    -0.10; C_b    -0.07; C_c    -0.11; C_d    -0.10; C_e    -0.14; C_f    -0.10; C_g    -0.13; C_h    -0.13; C_i    -0.16; C_j    -0.09; 
@             C_k    -0.09; C_l     0.02; C_m    -0.09; C_n     0.04; C_o    -0.01; C_p    -0.41; C_q    -0.11; C_r    -0.13; C_s    -0.17; C_t    -0.09; 
@             C_u    -0.13; C_v    -0.10; C_w    -0.12; C_x    -0.09; C_y    -0.11; C_z     0.12; C_{    -0.09; C_|    -0.04; C_}    -0.68; C_~     0.20; 
@    MULPOP    dipole moment & components:      6.9203;       -0.2170      6.9169      0.0000
  13  Level shift: doubly occupied orbital energies shifted by -1.25D-02
 -----------------------------------------------------------------------------
  14  Screening settings (-IFTHRS, JTDIIS, DIFDEN, times)  -14   14    T  1.74D+02  1.75D+02
@ 14    -1413.44728535        3.02063D-03   -4.88D-06    3
      Virial theorem: -V/T =      2.002654
@    MULPOP   C_a    -0.10; C_b    -0.07; C_c    -0.11; C_d    -0.10; C_e    -0.14; C_f    -0.10; C_g    -0.13; C_h    -0.13; C_i    -0.16; C_j    -0.09; 
@             C_k    -0.09; C_l     0.02; C_m    -0.09; C_n     0.04; C_o    -0.01; C_p    -0.41; C_q    -0.11; C_r    -0.13; C_s    -0.17; C_t    -0.09; 
@             C_u    -0.13; C_v    -0.10; C_w    -0.12; C_x    -0.09; C_y    -0.11; C_z     0.12; C_{    -0.09; C_|    -0.04; C_}    -0.68; C_~     0.20; 
@    MULPOP    dipole moment & components:      6.8614;       -0.2059      6.8583      0.0000
  14  Level shift: doubly occupied orbital energies shifted by -1.25D-02
 -----------------------------------------------------------------------------
  15  Screening settings (-IFTHRS, JTDIIS, DIFDEN, times)  -14   15    T  1.72D+02  1.72D+02
@ 15    -1413.44728764        2.13246D-03   -2.28D-06    3
      Virial theorem: -V/T =      2.002654
@    MULPOP   C_a    -0.10; C_b    -0.07; C_c    -0.11; C_d    -0.10; C_e    -0.14; C_f    -0.11; C_g    -0.13; C_h    -0.13; C_i    -0.16; C_j    -0.09; 
@             C_k    -0.09; C_l     0.02; C_m    -0.09; C_n     0.04; C_o    -0.01; C_p    -0.42; C_q    -0.11; C_r    -0.13; C_s    -0.17; C_t    -0.09; 
@             C_u    -0.13; C_v    -0.10; C_w    -0.12; C_x    -0.09; C_y    -0.11; C_z     0.12; C_{    -0.09; C_|    -0.04; C_}    -0.68; C_~     0.20; 
@    MULPOP    dipole moment & components:      6.8252;       -0.2009      6.8222      0.0000
  15  Level shift: doubly occupied orbital energies shifted by -1.25D-02
 -----------------------------------------------------------------------------
  16  Screening settings (-IFTHRS, JTDIIS, DIFDEN, times)  -14   16    T  1.71D+02  1.71D+02
@ 16    -1413.44728899        1.56755D-03   -1.36D-06    3
      Virial theorem: -V/T =      2.002653
@    MULPOP   C_a    -0.10; C_b    -0.07; C_c    -0.11; C_d    -0.10; C_e    -0.14; C_f    -0.11; C_g    -0.13; C_h    -0.13; C_i    -0.16; C_j    -0.09; 
@             C_k    -0.09; C_l     0.02; C_m    -0.09; C_n     0.04; C_o    -0.01; C_p    -0.42; C_q    -0.11; C_r    -0.13; C_s    -0.17; C_t    -0.09; 
@             C_u    -0.13; C_v    -0.10; C_w    -0.11; C_x    -0.09; C_y    -0.11; C_z     0.12; C_{    -0.09; C_|    -0.04; C_}    -0.68; C_~     0.20; 
@    MULPOP    dipole moment & components:      6.7933;       -0.1941      6.7905      0.0000
  16  Level shift: doubly occupied orbital energies shifted by -1.25D-02
 -----------------------------------------------------------------------------
  17  Screening settings (-IFTHRS, JTDIIS, DIFDEN, times)  -14   17    T  1.68D+02  1.68D+02
@ 17    -1413.44728959        1.17566D-03   -5.96D-07    3
      Virial theorem: -V/T =      2.002654
@    MULPOP   C_a    -0.10; C_b    -0.07; C_c    -0.11; C_d    -0.10; C_e    -0.14; C_f    -0.11; C_g    -0.13; C_h    -0.13; C_i    -0.16; C_j    -0.09; 
@             C_k    -0.09; C_l     0.01; C_m    -0.09; C_n     0.04; C_o    -0.01; C_p    -0.42; C_q    -0.11; C_r    -0.13; C_s    -0.17; C_t    -0.09; 
@             C_u    -0.13; C_v    -0.10; C_w    -0.11; C_x    -0.09; C_y    -0.11; C_z     0.12; C_{    -0.09; C_|    -0.04; C_}    -0.68; C_~     0.20; 
@    MULPOP    dipole moment & components:      6.7756;       -0.1909      6.7729      0.0000
  17  Level shift: doubly occupied orbital energies shifted by -1.25D-02
 -----------------------------------------------------------------------------
